 Entering Gaussian System, Link 0=g16
 Initial command:
 /home/g03/g16/l1.exe "/home/scr/21098/Gau-158391.inp" -scrdir="/home/scr/21098/"
 Entering Link 1 = /home/g03/g16/l1.exe PID=    158392.
  
 Copyright (c) 1988,1990,1992,1993,1995,1998,2003,2009,2016,
            Gaussian, Inc.  All Rights Reserved.
  
 This is part of the Gaussian(R) 16 program.  It is based on
 the Gaussian(R) 09 system (copyright 2009, Gaussian, Inc.),
 the Gaussian(R) 03 system (copyright 2003, Gaussian, Inc.),
 the Gaussian(R) 98 system (copyright 1998, Gaussian, Inc.),
 the Gaussian(R) 94 system (copyright 1995, Gaussian, Inc.),
 the Gaussian 92(TM) system (copyright 1992, Gaussian, Inc.),
 the Gaussian 90(TM) system (copyright 1990, Gaussian, Inc.),
 the Gaussian 88(TM) system (copyright 1988, Gaussian, Inc.),
 the Gaussian 86(TM) system (copyright 1986, Carnegie Mellon
 University), and the Gaussian 82(TM) system (copyright 1983,
 Carnegie Mellon University). Gaussian is a federally registered
 trademark of Gaussian, Inc.
  
 This software contains proprietary and confidential information,
 including trade secrets, belonging to Gaussian, Inc.
  
 This software is provided under written license and may be
 used, copied, transmitted, or stored only in accord with that
 written license.
  
 The following legend is applicable only to US Government
 contracts under FAR:
  
                    RESTRICTED RIGHTS LEGEND
  
 Use, reproduction and disclosure by the US Government is
 subject to restrictions as set forth in subparagraphs (a)
 and (c) of the Commercial Computer Software - Restricted
 Rights clause in FAR 52.227-19.
  
 Gaussian, Inc.
 340 Quinnipiac St., Bldg. 40, Wallingford CT 06492
  
  
 ---------------------------------------------------------------
 Warning -- This program may not be used in any manner that
 competes with the business of Gaussian, Inc. or will provide
 assistance to any competitor of Gaussian, Inc.  The licensee
 of this program is prohibited from giving any competitor of
 Gaussian, Inc. access to this program.  By using this program,
 the user acknowledges that Gaussian, Inc. is engaged in the
 business of creating and licensing software in the field of
 computational chemistry and represents and warrants to the
 licensee that it is not a competitor of Gaussian, Inc. and that
 it will not use this program in any manner prohibited above.
 ---------------------------------------------------------------
  

 Cite this work as:
 Gaussian 16, Revision A.03,
 M. J. Frisch, G. W. Trucks, H. B. Schlegel, G. E. Scuseria, 
 M. A. Robb, J. R. Cheeseman, G. Scalmani, V. Barone, 
 G. A. Petersson, H. Nakatsuji, X. Li, M. Caricato, A. V. Marenich, 
 J. Bloino, B. G. Janesko, R. Gomperts, B. Mennucci, H. P. Hratchian, 
 J. V. Ortiz, A. F. Izmaylov, J. L. Sonnenberg, D. Williams-Young, 
 F. Ding, F. Lipparini, F. Egidi, J. Goings, B. Peng, A. Petrone, 
 T. Henderson, D. Ranasinghe, V. G. Zakrzewski, J. Gao, N. Rega, 
 G. Zheng, W. Liang, M. Hada, M. Ehara, K. Toyota, R. Fukuda, 
 J. Hasegawa, M. Ishida, T. Nakajima, Y. Honda, O. Kitao, H. Nakai, 
 T. Vreven, K. Throssell, J. A. Montgomery, Jr., J. E. Peralta, 
 F. Ogliaro, M. J. Bearpark, J. J. Heyd, E. N. Brothers, K. N. Kudin, 
 V. N. Staroverov, T. A. Keith, R. Kobayashi, J. Normand, 
 K. Raghavachari, A. P. Rendell, J. C. Burant, S. S. Iyengar, 
 J. Tomasi, M. Cossi, J. M. Millam, M. Klene, C. Adamo, R. Cammi, 
 J. W. Ochterski, R. L. Martin, K. Morokuma, O. Farkas, 
 J. B. Foresman, and D. J. Fox, Gaussian, Inc., Wallingford CT, 2016.
 
 ******************************************
 Gaussian 16:  ES64L-G16RevA.03 25-Dec-2016
                14-Jul-2021 
 ******************************************
 %NProcShared=40
 Will use up to   40 processors via shared memory.
 %Mem=15GB
 ------------------------------------------------------
 #b3lyp/6-311G** EmpiricalDispersion=GD3 counterpoise=2
 ------------------------------------------------------
 1/38=1,62=2,172=1/1;
 2/12=2,17=6,18=5,40=1/2;
 1/38=1,53=2,62=2,63=1/22;
 3/5=4,6=6,7=101,11=2,25=1,30=1,74=-5,124=31/1,2,3;
 4//1;
 5/5=2,38=5/2;
 6/7=2,8=2,9=2,10=2,28=1/1;
 1/53=2,62=2,63=1/22;
 3/5=7,6=11,7=101,11=2,25=1,30=1,74=-5,82=7,124=31/1,2,3;
 4//1;
 5/5=2,38=5/2;
 6/7=2,8=2,9=2,10=2,28=1/1;
 1/53=2,62=2,63=1/22(-4);
 99/5=1,9=1/99;
 -------------------------
 BTBT dimer b3lyp/6-311G**
 -------------------------
 Symbolic Z-matrix:
 Charge =  0 Multiplicity = 1 in supermolecule
 Charge =  0 Multiplicity = 1 in fragment      1.
 Charge =  0 Multiplicity = 1 in fragment      2.
 S                     1.62032   0.93334  -0.96555    
 S                    -1.62032  -0.93334   0.96555    
 C                     0.7607    0.43205  -3.59649    
 C                    -0.19901  -0.09708  -4.45661    
 C                    -1.33587  -0.76174  -3.95189    
 C                    -1.5484   -0.86619  -2.58171    
 C                     1.5484    0.8662    2.58171    
 C                     1.33587   0.76174   3.95189    
 C                     0.19902   0.09708   4.45661    
 C                    -0.7607   -0.43206   3.59649    
 C                    -0.54188  -0.34672   2.21367    
 C                     0.58749   0.34629   1.69172    
 C                     0.56771   0.30359   0.26293    
 C                    -0.56771  -0.30359  -0.26293    
 C                    -0.58749  -0.34629  -1.69172    
 C                     0.54188   0.34671  -2.21367    
 H                     1.63516   0.94411  -3.98924    
 H                    -2.06902  -1.16857  -4.64253    
 H                    -2.42326  -1.38222  -2.1937     
 H                     2.42326   1.38224   2.19371    
 H                     2.06901   1.16858   4.64253    
 H                     0.04894   0.02825   5.53031    
 H                    -1.63516  -0.94412   3.98924    
 H                    -0.04893  -0.02825  -5.53031    
 S                    -4.54532   4.93834  -0.96555    
 S                    -1.30468   3.07166   0.96555    
 C                    -3.6857    4.43705  -3.59649    
 C                    -2.72599   3.90792  -4.45661    
 C                    -1.58913   3.24326  -3.95189    
 C                    -1.3766    3.13881  -2.58171    
 C                    -4.4734    4.8712    2.58171    
 C                    -4.26087   4.76674   3.95189    
 C                    -3.12402   4.10208   4.45661    
 C                    -2.1643    3.57294   3.59649    
 C                    -2.38312   3.65828   2.21367    
 C                    -3.51249   4.35129   1.69172    
 C                    -3.49271   4.30859   0.26293    
 C                    -2.35729   3.70141  -0.26293    
 C                    -2.33751   3.65871  -1.69172    
 C                    -3.46688   4.35171  -2.21367    
 H                    -4.56016   4.94911  -3.98924    
 H                    -0.85598   2.83643  -4.64253    
 H                    -0.50174   2.62278  -2.1937     
 H                    -5.34826   5.38724   2.19371    
 H                    -4.99401   5.17358   4.64253    
 H                    -2.97394   4.03325   5.53031    
 H                    -1.28984   3.06088   3.98924    
 H                    -2.87607   3.97675  -5.53031    
 
                          Input orientation:                          
 ---------------------------------------------------------------------
 Center     Atomic      Atomic             Coordinates (Angstroms)
 Number     Number       Type             X           Y           Z
 ---------------------------------------------------------------------
      1         16           0        1.620319    0.933340   -0.965554
      2         16           0       -1.620322   -0.933339    0.965553
      3          6           0        0.760701    0.432047   -3.596489
      4          6           0       -0.199015   -0.097081   -4.456605
      5          6           0       -1.335873   -0.761741   -3.951889
      6          6           0       -1.548401   -0.866190   -2.581713
      7          6           0        1.548398    0.866197    2.581713
      8          6           0        1.335871    0.761743    3.951889
      9          6           0        0.199016    0.097078    4.456606
     10          6           0       -0.760697   -0.432055    3.596489
     11          6           0       -0.541875   -0.346716    2.213672
     12          6           0        0.587486    0.346293    1.691720
     13          6           0        0.567711    0.303590    0.262930
     14          6           0       -0.567711   -0.303587   -0.262930
     15          6           0       -0.587487   -0.346292   -1.691720
     16          6           0        0.541880    0.346711   -2.213671
     17          1           0        1.635162    0.944105   -3.989242
     18          1           0       -2.069016   -1.168566   -4.642530
     19          1           0       -2.423263   -1.382225   -2.193704
     20          1           0        2.423259    1.382235    2.193705
     21          1           0        2.069008    1.168577    4.642530
     22          1           0        0.048938    0.028246    5.530313
     23          1           0       -1.635158   -0.944115    3.989240
     24          1           0       -0.048932   -0.028254   -5.530312
     25         16           0       -4.545319    4.938340   -0.965554
     26         16           0       -1.304678    3.071661    0.965553
     27          6           0       -3.685701    4.437047   -3.596489
     28          6           0       -2.725985    3.907919   -4.456605
     29          6           0       -1.589127    3.243259   -3.951889
     30          6           0       -1.376599    3.138810   -2.581713
     31          6           0       -4.473398    4.871197    2.581713
     32          6           0       -4.260871    4.766743    3.951889
     33          6           0       -3.124016    4.102078    4.456606
     34          6           0       -2.164303    3.572945    3.596489
     35          6           0       -2.383125    3.658284    2.213672
     36          6           0       -3.512486    4.351293    1.691720
     37          6           0       -3.492711    4.308590    0.262930
     38          6           0       -2.357289    3.701413   -0.262930
     39          6           0       -2.337513    3.658708   -1.691720
     40          6           0       -3.466880    4.351711   -2.213671
     41          1           0       -4.560162    4.949105   -3.989242
     42          1           0       -0.855984    2.836434   -4.642530
     43          1           0       -0.501737    2.622775   -2.193704
     44          1           0       -5.348259    5.387235    2.193705
     45          1           0       -4.994008    5.173577    4.642530
     46          1           0       -2.973938    4.033246    5.530313
     47          1           0       -1.289842    3.060885    3.989240
     48          1           0       -2.876068    3.976746   -5.530312
 ---------------------------------------------------------------------
                    Distance matrix (angstroms):
                    1          2          3          4          5
     1  S    0.000000
     2  S    4.208969   0.000000
     3  C    2.812838   5.324075   0.000000
     4  C    4.069297   5.667383   1.393137   0.000000
     5  C    4.531067   4.928650   2.438660   1.410304   0.000000
     6  C    3.986360   3.548630   2.836748   2.434665   1.390489
     7  C    3.548632   3.986363   6.243327   7.315687   7.325105
     8  C    4.928652   4.531069   7.577436   8.590473   8.481093
     9  C    5.667385   4.069299   8.079606   8.924206   8.590474
    10  C    5.324076   2.812839   7.402719   8.079605   7.577436
    11  C    4.052297   1.750707   6.005094   6.683747   6.230315
    12  C    2.910752   2.653147   5.291740   6.214263   6.064435
    13  C    1.736014   2.609819   3.866376   4.798169   4.745868
    14  C    2.609817   1.736015   3.663120   4.214913   3.795840
    15  C    2.653146   2.910750   2.459994   2.803143   2.416826
    16  C    1.750703   4.052296   1.402623   2.403462   2.788553
    17  H    3.023743   6.218759   1.086803   2.160255   3.426128
    18  H    5.616881   5.630919   3.415181   2.163228   1.086273
    19  H    4.818792   3.290459   3.923903   3.423390   2.158387
    20  H    3.290462   4.818795   6.098632   7.300091   7.516385
    21  H    5.630921   5.616882   8.374699   9.462562   9.443696
    22  H    6.744237   4.954605   9.163416   9.990782   9.615298
    23  H    6.218758   3.023743   8.073242   8.608848   7.948859
    24  H    4.954602   6.744235   2.146405   1.086328   2.164633
    25  S    7.352219   6.838231   7.441932   7.512208   7.190943
    26  S    4.105752   4.017419   5.660882   6.376772   6.235157
    27  C    6.881252   7.342960   5.984189   5.784038   5.716239
    28  C    6.318696   7.352555   4.997847   4.735568   4.898252
    29  C    4.955247   6.451835   3.681157   3.653084   4.012999
    30  C    4.056795   5.406005   3.595051   3.920831   4.134409
    31  C    8.076089   6.666682   9.234286   9.617280   9.179434
    32  C    8.571151   6.955691  10.049069  10.528924  10.079160
    33  C    7.870796   6.309039   9.665014  10.277835   9.877093
    34  C    6.488691   5.246364   8.376146   9.065527   8.743787
    35  C    5.793131   4.818991   7.351886   7.960258   7.658166
    36  C    6.714849   5.659941   7.847660   8.280642   7.920296
    37  C    6.248565   5.610466   6.929229   7.247923   6.937212
    38  C    4.896660   4.851105   5.614555   6.055874   5.879749
    39  C    4.859978   5.353723   4.861936   5.130665   5.064782
    40  C    6.254810   6.438089   5.928608   5.958309   5.806030
    41  H    7.966643   8.233820   6.990684   6.685958   6.558292
    42  H    4.824313   6.800440   3.080414   3.011924   3.695150
    43  H    2.977527   4.886521   2.891513   3.551053   3.904094
    44  H    8.853202   7.440130   9.767274  10.040870   9.574836
    45  H    9.652955   7.886466  11.112166  11.557078  11.066797
    46  H    8.538906   6.880137  10.498318  11.157883  10.751155
    47  H    6.127436   5.020530   8.286061   9.082673   8.813406
    48  H    7.093436   8.239059   5.434211   4.991546   5.226555
                    6          7          8          9         10
     6  C    0.000000
     7  C    6.265166   0.000000
     8  C    7.325104   1.390489   0.000000
     9  C    7.315687   2.434666   1.410304   0.000000
    10  C    6.243327   2.836750   2.438660   1.393137   0.000000
    11  C    4.927339   2.444556   2.788550   2.403460   1.402622
    12  C    4.928931   1.409163   2.416825   2.803143   2.459994
    13  C    3.733405   2.579734   3.795839   4.214913   3.663121
    14  C    2.579734   3.733404   4.745867   4.798168   3.866376
    15  C    1.409162   4.928931   6.064435   6.214263   5.291739
    16  C    2.444557   4.927338   6.230314   6.683746   6.005093
    17  H    3.923440   6.571990   7.948861   8.608851   8.073244
    18  H    2.146960   8.331605   9.443696   9.462562   8.374698
    19  H    1.087302   6.605612   7.516383   7.300089   6.098630
    20  H    6.605613   1.087303   2.158387   3.423391   3.923905
    21  H    8.331604   2.146959   1.086273   2.163227   3.415181
    22  H    8.316038   3.412445   2.164633   1.086328   2.146407
    23  H    6.571988   3.923441   3.426129   2.160256   1.086802
    24  H    3.412445   8.316037   9.615296   9.990781   9.163414
    25  S    6.729492   8.142411   8.730041   8.680228   7.998546
    26  S    5.305579   3.951721   4.607215   4.826665   4.415175
    27  C    5.807077   8.849686   9.782743   9.938747   9.165300
    28  C    5.262513   8.778403   9.853927  10.125387   9.356818
    29  C    4.332045   7.627742   8.785400   9.154163   8.436364
    30  C    4.008683   6.354632   7.462968   7.827683   7.162443
    31  C    8.254344   7.232016   7.246557   6.938219   6.552739
    32  C    9.042975   7.130165   6.882117   6.476967   6.277342
    33  C    8.758092   5.984781   5.594923   5.204091   5.184924
    34  C    7.632525   4.705359   4.503374   4.290306   4.243835
    35  C    6.645552   4.836123   5.024169   4.937651   4.612519
    36  C    7.024386   6.208908   6.442033   6.286349   5.837885
    37  C    6.216968   6.529901   7.035889   6.996613   6.407045
    38  C    5.185948   5.602218   6.328174   6.465288   5.876204
    39  C    4.678621   6.415657   7.330517   7.544607   6.869195
    40  C    5.571581   7.765149   8.600489   8.719707   7.997862
    41  H    6.698470   9.857084  10.740520  10.840862  10.046697
    42  H    4.293697   7.864641   9.108930   9.560929   8.864171
    43  H    3.663187   5.485730   6.678964   7.148204   6.551747
    44  H    8.737784   8.255557   8.316488   7.992418   7.541728
    45  H   10.026998   8.099603   7.746523   7.264497   7.101988
    46  H    9.583403   6.259071   5.636364   5.168550   5.345749
    47  H    7.659386   3.854010   3.490246   3.349520   3.554557
    48  H    5.823313   9.749686  10.862266  11.146591  10.354266
                   11         12         13         14         15
    11  C    0.000000
    12  C    1.424132   0.000000
    13  C    2.336551   1.429564   0.000000
    14  C    2.477113   2.361669   1.390818   0.000000
    15  C    3.905658   3.647999   2.361670   1.429564   0.000000
    16  C    4.610503   3.905657   2.477112   2.336551   1.424133
    17  H    6.699392   5.807610   4.430653   4.504973   3.447304
    18  H    7.072136   7.033813   5.760478   4.709883   3.402697
    19  H    4.902741   5.210461   4.221724   2.886940   2.166846
    20  H    3.432447   2.166848   2.886941   4.221724   5.210463
    21  H    3.874555   3.402696   4.709882   5.760477   7.033812
    22  H    3.389656   3.889214   5.300025   5.835413   7.259688
    23  H    2.169053   3.447303   4.504972   4.430651   5.807607
    24  H    7.766190   7.259688   5.835412   5.300024   3.889214
    25  S    7.353017   7.381985   7.009505   6.617617   6.642221
    26  S    3.718195   3.396357   3.414929   3.666687   4.388378
    27  C    8.156347   7.934706   7.076164   6.580888   6.008944
    28  C    8.207609   7.840037   6.790702   6.323120   5.506004
    29  C    7.211020   6.706742   5.572999   5.218412   4.358501
    30  C    5.986766   5.469736   4.462153   4.228611   3.682489
    31  C    6.543618   6.846853   7.186972   7.079885   7.783619
    32  C    6.557422   6.939403   7.539453   7.557274   8.455010
    33  C    5.611592   5.960349   6.756054   6.943961   8.001492
    34  C    4.461860   4.648846   5.409731   5.698396   6.768450
    35  C    4.407973   4.479537   4.875121   5.012556   5.874780
    36  C    5.582853   5.731474   5.922275   5.844678   6.486184
    37  C    5.846768   5.864234   5.703249   5.486741   5.824853
    38  C    5.081007   4.873314   4.514129   4.386641   4.643011
    39  C    5.875357   5.565553   4.849516   4.568744   4.370654
    40  C    7.087470   6.908932   6.228865   5.820857   5.534851
    41  H    9.092221   8.941895   8.121383   7.577324   7.007281
    42  H    7.565620   6.957523   5.701381   5.396640   4.348461
    43  H    5.314551   4.633066   3.543641   3.506542   3.012425
    44  H    7.481973   7.803599   8.035549   7.827781   8.404452
    45  H    7.496297   7.947517   8.592461   8.582248   9.487313
    46  H    6.008253   6.404074   7.361993   7.626252   8.776860
    47  H    3.914567   4.021439   4.993852   5.470109   6.661490
    48  H    9.171154   8.793984   7.675503   7.169036   6.217802
                   16         17         18         19         20
    16  C    0.000000
    17  H    2.169054   0.000000
    18  H    3.874558   4.314058   0.000000
    19  H    3.432447   5.010647   2.483523   0.000000
    20  H    4.902740   6.248351   8.568619   7.097914   0.000000
    21  H    7.072134   8.645583  10.430619   8.568617   2.483523
    22  H    7.766190   9.694165  10.459676   8.231747   4.313194
    23  H    6.699390   8.827034   8.645580   6.248347   5.010648
    24  H    3.389656   2.481240   2.483789   4.313193   8.231747
    25  S    6.965662   7.955812   7.546293   6.779455   8.437292
    26  S    4.576308   6.141591   7.072081   5.573978   4.273177
    27  C    6.042803   6.377027   5.927122   6.117636   8.954196
    28  C    5.328405   5.293602   5.122195   5.761769   8.781824
    29  C    3.994068   3.960245   4.491267   5.018177   7.571723
    30  C    3.407613   3.983537   4.824924   4.656802   6.350519
    31  C    8.283700   9.793570   9.718512   8.130987   7.738688
    32  C    8.978710  10.603647  10.672215   8.885659   7.695694
    33  C    8.487294  10.195828  10.568206   8.648425   6.579553
    34  C    7.175651   8.882007   9.506442   7.625425   5.273778
    35  C    6.254881   7.873344   8.390749   6.695768   5.318094
    36  C    6.908447   8.389311   8.524973   7.011145   6.655852
    37  C    6.173164   7.462962   7.489305   6.290003   6.876783
    38  C    4.844027   6.117827   6.555966   5.438346   5.853827
    39  C    4.419577   5.331963   5.664093   5.066591   6.553152
    40  C    5.666584   6.387117   6.190868   5.828169   7.933252
    41  H    7.096866   7.377131   6.637658   6.919251   9.985968
    42  H    3.748613   3.195857   4.184671   5.123494   7.720249
    43  H    2.503997   3.257027   4.777801   4.442104   5.417001
    44  H    8.917712  10.331428  10.023277   8.580825   8.742798
    45  H   10.047496  11.676550  11.618550   9.814345   8.682561
    46  H    9.269348  11.018554  11.461434   9.449393   6.876813
    47  H    7.014132   8.757430   9.643797   7.697705   4.452969
    48  H    5.988291   5.650044   5.283345   6.329025   9.719815
                   21         22         23         24         25
    21  H    0.000000
    22  H    2.483787   0.000000
    23  H    4.314058   2.481244   0.000000
    24  H   10.459675  11.061203   9.694162   0.000000
    25  S    9.455742   9.349466   8.223278   8.106884   0.000000
    26  S    5.340754   5.650813   5.037694   7.306342   4.208969
    27  C   10.567924  10.802017   9.523913   6.074921   2.812838
    28  C   10.643788  11.067547   9.801246   4.879848   4.069297
    29  C    9.568193  10.145528   8.977625   3.945430   4.531067
    30  C    8.242798   8.804132   7.740449   4.526282   3.986360
    31  C    7.794834   7.252581   6.622280  10.458751   3.548632
    32  C    7.313765   6.596910   6.285672  11.429985   4.928652
    33  C    5.967201   5.274143   5.281968  11.236294   5.667385
    34  C    4.979569   4.604671   4.564875  10.037028   5.324076
    35  C    5.649733   5.485637   4.989406   8.888662   4.052297
    36  C    7.070364   6.790233   6.069951   9.128767   2.910752
    37  C    7.744242   7.655713   6.702745   8.014330   1.736014
    38  C    7.076080   7.269371   6.339034   6.854505   2.609817
    39  C    8.108076   8.428117   7.345242   5.793624   2.653146
    40  C    9.369413   9.540577   8.359251   6.470438   1.750703
    41  H   11.521536  11.665358  10.341270   6.892038   3.023743
    42  H    9.876723  10.592051   9.455533   3.105789   5.616881
    43  H    7.446981   8.166717   7.227458   4.285550   4.818792
    44  H    8.877482   8.305507   7.556260  10.819928   3.290462
    45  H    8.119497   7.259056   7.009623  12.449881   5.630921
    46  H    5.867350   5.017749   5.379718  12.140382   6.744237
    47  H    3.910178   3.655699   4.019859  10.084865   6.218758
    48  H   11.654455  12.103047  10.787799   4.902318   4.954602
                   26         27         28         29         30
    26  S    0.000000
    27  C    5.324075   0.000000
    28  C    5.667383   1.393137   0.000000
    29  C    4.928650   2.438660   1.410304   0.000000
    30  C    3.548630   2.836748   2.434665   1.390489   0.000000
    31  C    3.986363   6.243327   7.315687   7.325105   6.265166
    32  C    4.531069   7.577436   8.590473   8.481093   7.325104
    33  C    4.069299   8.079606   8.924206   8.590474   7.315687
    34  C    2.812839   7.402719   8.079605   7.577436   6.243327
    35  C    1.750707   6.005094   6.683747   6.230315   4.927339
    36  C    2.653147   5.291740   6.214263   6.064435   4.928931
    37  C    2.609819   3.866376   4.798169   4.745868   3.733405
    38  C    1.736015   3.663120   4.214913   3.795840   2.579734
    39  C    2.910750   2.459994   2.803143   2.416826   1.409162
    40  C    4.052296   1.402623   2.403462   2.788553   2.444557
    41  H    6.218759   1.086803   2.160255   3.426128   3.923440
    42  H    5.630919   3.415181   2.163228   1.086273   2.146960
    43  H    3.290459   3.923903   3.423390   2.158387   1.087302
    44  H    4.818795   6.098632   7.300091   7.516385   6.605613
    45  H    5.616882   8.374699   9.462562   9.443696   8.331604
    46  H    4.954605   9.163416   9.990782   9.615298   8.316038
    47  H    3.023743   8.073242   8.608848   7.948859   6.571988
    48  H    6.744235   2.146405   1.086328   2.164633   3.412445
                   31         32         33         34         35
    31  C    0.000000
    32  C    1.390489   0.000000
    33  C    2.434666   1.410304   0.000000
    34  C    2.836750   2.438660   1.393137   0.000000
    35  C    2.444556   2.788550   2.403460   1.402622   0.000000
    36  C    1.409163   2.416825   2.803143   2.459994   1.424132
    37  C    2.579734   3.795839   4.214913   3.663121   2.336551
    38  C    3.733404   4.745867   4.798168   3.866376   2.477113
    39  C    4.928931   6.064435   6.214263   5.291739   3.905658
    40  C    4.927338   6.230314   6.683746   6.005093   4.610503
    41  H    6.571990   7.948861   8.608851   8.073244   6.699392
    42  H    8.331605   9.443696   9.462562   8.374698   7.072136
    43  H    6.605612   7.516383   7.300089   6.098630   4.902741
    44  H    1.087303   2.158387   3.423391   3.923905   3.432447
    45  H    2.146959   1.086273   2.163227   3.415181   3.874555
    46  H    3.412445   2.164633   1.086328   2.146407   3.389656
    47  H    3.923441   3.426129   2.160256   1.086802   2.169053
    48  H    8.316037   9.615296   9.990781   9.163414   7.766190
                   36         37         38         39         40
    36  C    0.000000
    37  C    1.429564   0.000000
    38  C    2.361669   1.390818   0.000000
    39  C    3.647999   2.361670   1.429564   0.000000
    40  C    3.905657   2.477112   2.336551   1.424133   0.000000
    41  H    5.807610   4.430653   4.504973   3.447304   2.169054
    42  H    7.033813   5.760478   4.709883   3.402697   3.874558
    43  H    5.210461   4.221724   2.886940   2.166846   3.432447
    44  H    2.166848   2.886941   4.221724   5.210463   4.902740
    45  H    3.402696   4.709882   5.760477   7.033812   7.072134
    46  H    3.889214   5.300025   5.835413   7.259688   7.766190
    47  H    3.447303   4.504972   4.430651   5.807607   6.699390
    48  H    7.259688   5.835412   5.300024   3.889214   3.389656
                   41         42         43         44         45
    41  H    0.000000
    42  H    4.314058   0.000000
    43  H    5.010647   2.483523   0.000000
    44  H    6.248351   8.568619   7.097914   0.000000
    45  H    8.645583  10.430619   8.568617   2.483523   0.000000
    46  H    9.694165  10.459676   8.231747   4.313194   2.483787
    47  H    8.827034   8.645580   6.248347   5.010648   4.314058
    48  H    2.481240   2.483789   4.313193   8.231747  10.459675
                   46         47         48
    46  H    0.000000
    47  H    2.481244   0.000000
    48  H   11.061203   9.694162   0.000000
 Stoichiometry    C28H16S4
 Framework group  C1[X(C28H16S4)]
 Deg. of freedom   138
 Full point group                 C1      NOp   1
 Largest Abelian subgroup         C1      NOp   1
 Largest concise Abelian subgroup C1      NOp   1
                         Standard orientation:                         
 ---------------------------------------------------------------------
 Center     Atomic      Atomic             Coordinates (Angstroms)
 Number     Number       Type             X           Y           Z
 ---------------------------------------------------------------------
      1         16           0       -1.727197   -2.413903   -1.664042
      2         16           0        0.239792   -2.300983    2.055316
      3          6           0       -4.205399   -1.448632   -0.748171
      4          6           0       -4.983243   -0.970020    0.303836
      5          6           0       -4.460356   -0.885812    1.610916
      6          6           0       -3.140731   -1.237266    1.872696
      7          6           0        1.653329   -3.477618   -1.481424
      8          6           0        2.972953   -3.829074   -1.219642
      9          6           0        3.495838   -3.744873    0.087439
     10          6           0        2.717993   -3.266266    1.139448
     11          6           0        1.380573   -2.928724    0.885044
     12          6           0        0.849425   -2.982689   -0.435229
     13          6           0       -0.520395   -2.573824   -0.426383
     14          6           0       -0.967008   -2.141063    0.817655
     15          6           0       -2.336828   -1.732200    0.826503
     16          6           0       -2.867977   -1.786172   -0.493771
     17          1           0       -4.611725   -1.511468   -1.754199
     18          1           0       -5.087233   -0.512033    2.415468
     19          1           0       -2.739820   -1.175619    2.881506
     20          1           0        1.252420   -3.539261   -2.490235
     21          1           0        3.599834   -4.202844   -2.024195
     22          1           0        4.530153   -4.021247    0.271611
     23          1           0        3.124316   -3.203431    2.145476
     24          1           0       -6.017559   -0.693652    0.119664
     25         16           0        0.336012    4.333673    0.401994
     26         16           0        1.151391    0.381216   -0.793271
     27          6           0       -2.447669    4.220555    0.014203
     28          6           0       -3.566561    3.495206   -0.389255
     29          6           0       -3.447674    2.153227   -0.806288
     30          6           0       -2.203573    1.535158   -0.866819
     31          6           0        3.690979    3.179734    0.475539
     32          6           0        4.935079    2.561662    0.415011
     33          6           0        5.053966    1.219682   -0.002016
     34          6           0        3.935072    0.494330   -0.405468
     35          6           0        2.675414    1.106384   -0.328015
     36          6           0        2.545601    2.469200    0.064455
     37          6           0        1.168754    2.853257    0.043310
     38          6           0        0.318651    1.861634   -0.434586
     39          6           0       -1.058196    2.245689   -0.455729
     40          6           0       -1.188008    3.608505   -0.063252
     41          1           0       -2.543242    5.254729    0.334347
     42          1           0       -4.335084    1.607280   -1.113590
     43          1           0       -2.113558    0.499292   -1.184790
     44          1           0        3.600965    4.215602    0.793506
     45          1           0        5.822490    3.107612    0.722304
     46          1           0        6.034948    0.755035   -0.045446
     47          1           0        4.030643   -0.539843   -0.725611
     48          1           0       -4.547544    3.959852   -0.345819
 ---------------------------------------------------------------------
 Rotational constants (GHZ):           0.1333163           0.1274214           0.0746020
 Counterpoise: doing full-system calculation.
 Standard basis: 6-311G(d,p) (5D, 7F)
 There are   736 symmetry adapted cartesian basis functions of A   symmetry.
 There are   704 symmetry adapted basis functions of A   symmetry.
   704 basis functions,  1208 primitive gaussians,   736 cartesian basis functions
   124 alpha electrons      124 beta electrons
       nuclear repulsion energy      3752.8072778926 Hartrees.
 NAtoms=   48 NActive=   48 NUniq=   48 SFac= 1.00D+00 NAtFMM=   60 NAOKFM=F Big=F
 Integral buffers will be    131072 words long.
 Raffenetti 2 integral format.
 Two-electron integral symmetry is turned on.
 Nuclear repulsion after empirical dispersion term =     3752.7457204591 Hartrees.
 One-electron integrals computed using PRISM.
 NBasis=   704 RedAO= T EigKep=  1.61D-04  NBF=   704
 NBsUse=   704 1.00D-06 EigRej= -1.00D+00 NBFU=   704
 ExpMin= 7.71D-02 ExpMax= 9.34D+04 ExpMxC= 3.17D+03 IAcc=3 IRadAn=         5 AccDes= 0.00D+00
 Harris functional with IExCor=  402 and IRadAn=       5 diagonalized for initial guess.
 HarFok:  IExCor=  402 AccDes= 0.00D+00 IRadAn=         5 IDoV= 1 UseB2=F ITyADJ=14
 ICtDFT=  3500011 ScaDFX=  1.000000  1.000000  1.000000  1.000000
 FoFCou: FMM=F IPFlag=           0 FMFlag=      100000 FMFlg1=           0
         NFxFlg=           0 DoJE=T BraDBF=F KetDBF=T FulRan=T
         wScrn=  0.000000 ICntrl=       500 IOpCl=  0 I1Cent=   200000004 NGrid=           0
         NMat0=    1 NMatS0=      1 NMatT0=    0 NMatD0=    1 NMtDS0=    0 NMtDT0=    0
 Petite list used in FoFCou.
 Requested convergence on RMS density matrix=1.00D-08 within 128 cycles.
 Requested convergence on MAX density matrix=1.00D-06.
 Requested convergence on             energy=1.00D-06.
 No special actions if energy rises.
 Integral accuracy reduced to 1.0D-05 until final iterations.
 Initial convergence to 1.0D-05 achieved.  Increase integral accuracy.
 SCF Done:  E(RB3LYP) =  -2669.81038777     A.U. after   15 cycles
            NFock= 15  Conv=0.75D-08     -V/T= 2.0026

 **********************************************************************

            Population analysis using the SCF density.

 **********************************************************************

 Orbital symmetries:
       Occupied  (A) (A) (A) (A) (A) (A) (A) (A) (A) (A) (A) (A)
                 (A) (A) (A) (A) (A) (A) (A) (A) (A) (A) (A) (A)
                 (A) (A) (A) (A) (A) (A) (A) (A) (A) (A) (A) (A)
                 (A) (A) (A) (A) (A) (A) (A) (A) (A) (A) (A) (A)
                 (A) (A) (A) (A) (A) (A) (A) (A) (A) (A) (A) (A)
                 (A) (A) (A) (A) (A) (A) (A) (A) (A) (A) (A) (A)
                 (A) (A) (A) (A) (A) (A) (A) (A) (A) (A) (A) (A)
                 (A) (A) (A) (A) (A) (A) (A) (A) (A) (A) (A) (A)
                 (A) (A) (A) (A) (A) (A) (A) (A) (A) (A) (A) (A)
                 (A) (A) (A) (A) (A) (A) (A) (A) (A) (A) (A) (A)
                 (A) (A) (A) (A)
       Virtual   (A) (A) (A) (A) (A) (A) (A) (A) (A) (A) (A) (A)
                 (A) (A) (A) (A) (A) (A) (A) (A) (A) (A) (A) (A)
                 (A) (A) (A) (A) (A) (A) (A) (A) (A) (A) (A) (A)
                 (A) (A) (A) (A) (A) (A) (A) (A) (A) (A) (A) (A)
                 (A) (A) (A) (A) (A) (A) (A) (A) (A) (A) (A) (A)
                 (A) (A) (A) (A) (A) (A) (A) (A) (A) (A) (A) (A)
                 (A) (A) (A) (A) (A) (A) (A) (A) (A) (A) (A) (A)
                 (A) (A) (A) (A) (A) (A) (A) (A) (A) (A) (A) (A)
                 (A) (A) (A) (A) (A) (A) (A) (A) (A) (A) (A) (A)
                 (A) (A) (A) (A) (A) (A) (A) (A) (A) (A) (A) (A)
                 (A) (A) (A) (A) (A) (A) (A) (A) (A) (A) (A) (A)
                 (A) (A) (A) (A) (A) (A) (A) (A) (A) (A) (A) (A)
                 (A) (A) (A) (A) (A) (A) (A) (A) (A) (A) (A) (A)
                 (A) (A) (A) (A) (A) (A) (A) (A) (A) (A) (A) (A)
                 (A) (A) (A) (A) (A) (A) (A) (A) (A) (A) (A) (A)
                 (A) (A) (A) (A) (A) (A) (A) (A) (A) (A) (A) (A)
                 (A) (A) (A) (A) (A) (A) (A) (A) (A) (A) (A) (A)
                 (A) (A) (A) (A) (A) (A) (A) (A) (A) (A) (A) (A)
                 (A) (A) (A) (A) (A) (A) (A) (A) (A) (A) (A) (A)
                 (A) (A) (A) (A) (A) (A) (A) (A) (A) (A) (A) (A)
                 (A) (A) (A) (A) (A) (A) (A) (A) (A) (A) (A) (A)
                 (A) (A) (A) (A) (A) (A) (A) (A) (A) (A) (A) (A)
                 (A) (A) (A) (A) (A) (A) (A) (A) (A) (A) (A) (A)
                 (A) (A) (A) (A) (A) (A) (A) (A) (A) (A) (A) (A)
                 (A) (A) (A) (A) (A) (A) (A) (A) (A) (A) (A) (A)
                 (A) (A) (A) (A) (A) (A) (A) (A) (A) (A) (A) (A)
                 (A) (A) (A) (A) (A) (A) (A) (A) (A) (A) (A) (A)
                 (A) (A) (A) (A) (A) (A) (A) (A) (A) (A) (A) (A)
                 (A) (A) (A) (A) (A) (A) (A) (A) (A) (A) (A) (A)
                 (A) (A) (A) (A) (A) (A) (A) (A) (A) (A) (A) (A)
                 (A) (A) (A) (A) (A) (A) (A) (A) (A) (A) (A) (A)
                 (A) (A) (A) (A) (A) (A) (A) (A) (A) (A) (A) (A)
                 (A) (A) (A) (A) (A) (A) (A) (A) (A) (A) (A) (A)
                 (A) (A) (A) (A) (A) (A) (A) (A) (A) (A) (A) (A)
                 (A) (A) (A) (A) (A) (A) (A) (A) (A) (A) (A) (A)
                 (A) (A) (A) (A) (A) (A) (A) (A) (A) (A) (A) (A)
                 (A) (A) (A) (A) (A) (A) (A) (A) (A) (A) (A) (A)
                 (A) (A) (A) (A) (A) (A) (A) (A) (A) (A) (A) (A)
                 (A) (A) (A) (A) (A) (A) (A) (A) (A) (A) (A) (A)
                 (A) (A) (A) (A) (A) (A) (A) (A) (A) (A) (A) (A)
                 (A) (A) (A) (A) (A) (A) (A) (A) (A) (A) (A) (A)
                 (A) (A) (A) (A) (A) (A) (A) (A) (A) (A) (A) (A)
                 (A) (A) (A) (A) (A) (A) (A) (A) (A) (A) (A) (A)
                 (A) (A) (A) (A) (A) (A) (A) (A) (A) (A) (A) (A)
                 (A) (A) (A) (A) (A) (A) (A) (A) (A) (A) (A) (A)
                 (A) (A) (A) (A) (A) (A) (A) (A) (A) (A) (A) (A)
                 (A) (A) (A) (A) (A) (A) (A) (A) (A) (A) (A) (A)
                 (A) (A) (A) (A) (A) (A) (A) (A) (A) (A) (A) (A)
                 (A) (A) (A) (A)
 The electronic state is 1-A.
 Alpha  occ. eigenvalues --  -88.88544 -88.88311 -88.87418 -88.87135 -10.22136
 Alpha  occ. eigenvalues --  -10.22062 -10.21613 -10.21552 -10.21056 -10.20983
 Alpha  occ. eigenvalues --  -10.20522 -10.20458 -10.20386 -10.20338 -10.19410
 Alpha  occ. eigenvalues --  -10.19337 -10.19322 -10.19237 -10.19072 -10.19020
 Alpha  occ. eigenvalues --  -10.18798 -10.18781 -10.18641 -10.18577 -10.18336
 Alpha  occ. eigenvalues --  -10.18259 -10.18091 -10.17772 -10.17737 -10.17720
 Alpha  occ. eigenvalues --  -10.17667 -10.17439  -7.97195  -7.96955  -7.96076
 Alpha  occ. eigenvalues --   -7.95793  -5.93522  -5.93286  -5.93163  -5.92925
 Alpha  occ. eigenvalues --   -5.92694  -5.92453  -5.92405  -5.92121  -5.92047
 Alpha  occ. eigenvalues --   -5.91759  -5.91575  -5.91290  -0.92638  -0.91529
 Alpha  occ. eigenvalues --   -0.88567  -0.87462  -0.84481  -0.83408  -0.82409
 Alpha  occ. eigenvalues --   -0.81329  -0.78095  -0.77688  -0.77030  -0.76600
 Alpha  occ. eigenvalues --   -0.74272  -0.73200  -0.72460  -0.71401  -0.70324
 Alpha  occ. eigenvalues --   -0.69254  -0.64934  -0.63883  -0.61845  -0.60794
 Alpha  occ. eigenvalues --   -0.59686  -0.58780  -0.58635  -0.57735  -0.57293
 Alpha  occ. eigenvalues --   -0.56237  -0.51740  -0.50730  -0.50527  -0.49489
 Alpha  occ. eigenvalues --   -0.49403  -0.48370  -0.47809  -0.46931  -0.45958
 Alpha  occ. eigenvalues --   -0.45800  -0.45063  -0.44801  -0.44296  -0.43850
 Alpha  occ. eigenvalues --   -0.43671  -0.43143  -0.42595  -0.42319  -0.41148
 Alpha  occ. eigenvalues --   -0.40791  -0.40109  -0.39861  -0.39436  -0.38402
 Alpha  occ. eigenvalues --   -0.37601  -0.36951  -0.36587  -0.36497  -0.35909
 Alpha  occ. eigenvalues --   -0.35495  -0.35056  -0.34942  -0.34816  -0.34053
 Alpha  occ. eigenvalues --   -0.33857  -0.33708  -0.32800  -0.31845  -0.29165
 Alpha  occ. eigenvalues --   -0.28493  -0.28091  -0.27482  -0.25312  -0.24210
 Alpha  occ. eigenvalues --   -0.23246  -0.22164  -0.21438  -0.20371
 Alpha virt. eigenvalues --   -0.06035  -0.04909  -0.02757  -0.02027  -0.01614
 Alpha virt. eigenvalues --   -0.00901  -0.00782  -0.00016   0.00483   0.01216
 Alpha virt. eigenvalues --    0.01519   0.02652   0.03671   0.03822   0.04264
 Alpha virt. eigenvalues --    0.04752   0.04912   0.05524   0.06464   0.06989
 Alpha virt. eigenvalues --    0.07190   0.07544   0.07854   0.08875   0.09221
 Alpha virt. eigenvalues --    0.10428   0.10980   0.11914   0.12507   0.12630
 Alpha virt. eigenvalues --    0.12718   0.13068   0.13173   0.13410   0.13895
 Alpha virt. eigenvalues --    0.14153   0.14575   0.14978   0.15667   0.16007
 Alpha virt. eigenvalues --    0.16702   0.17266   0.18035   0.18827   0.19975
 Alpha virt. eigenvalues --    0.20915   0.21223   0.21727   0.22855   0.23008
 Alpha virt. eigenvalues --    0.23566   0.24246   0.24394   0.25180   0.26799
 Alpha virt. eigenvalues --    0.27292   0.27371   0.27796   0.28095   0.28206
 Alpha virt. eigenvalues --    0.28549   0.28980   0.29164   0.29383   0.29976
 Alpha virt. eigenvalues --    0.31817   0.32339   0.33659   0.33886   0.34856
 Alpha virt. eigenvalues --    0.35078   0.35308   0.36151   0.36627   0.36904
 Alpha virt. eigenvalues --    0.37930   0.37978   0.38191   0.38602   0.38990
 Alpha virt. eigenvalues --    0.39532   0.39938   0.40221   0.40591   0.40818
 Alpha virt. eigenvalues --    0.41096   0.41246   0.41573   0.41833   0.42110
 Alpha virt. eigenvalues --    0.42294   0.42833   0.43120   0.43306   0.43597
 Alpha virt. eigenvalues --    0.43756   0.44104   0.44332   0.44623   0.45065
 Alpha virt. eigenvalues --    0.45720   0.46017   0.46228   0.46336   0.46487
 Alpha virt. eigenvalues --    0.47282   0.48412   0.48698   0.48858   0.49318
 Alpha virt. eigenvalues --    0.49585   0.50631   0.50818   0.51017   0.51518
 Alpha virt. eigenvalues --    0.52432   0.52877   0.53753   0.53846   0.54241
 Alpha virt. eigenvalues --    0.55257   0.55558   0.56065   0.56735   0.57166
 Alpha virt. eigenvalues --    0.57886   0.58089   0.58178   0.58733   0.58971
 Alpha virt. eigenvalues --    0.59040   0.59470   0.59807   0.59855   0.60084
 Alpha virt. eigenvalues --    0.60823   0.60855   0.61283   0.61406   0.61857
 Alpha virt. eigenvalues --    0.62465   0.62642   0.63114   0.63538   0.64151
 Alpha virt. eigenvalues --    0.64612   0.65512   0.66424   0.67173   0.67639
 Alpha virt. eigenvalues --    0.68488   0.69465   0.69681   0.70121   0.70693
 Alpha virt. eigenvalues --    0.71146   0.71607   0.71807   0.72209   0.72456
 Alpha virt. eigenvalues --    0.72950   0.73291   0.73534   0.74309   0.74815
 Alpha virt. eigenvalues --    0.75213   0.75501   0.76047   0.76513   0.77283
 Alpha virt. eigenvalues --    0.77624   0.77783   0.78263   0.78739   0.79255
 Alpha virt. eigenvalues --    0.79877   0.79985   0.80832   0.80990   0.81420
 Alpha virt. eigenvalues --    0.82157   0.82253   0.83042   0.83788   0.84039
 Alpha virt. eigenvalues --    0.84479   0.84834   0.85952   0.86194   0.86979
 Alpha virt. eigenvalues --    0.87248   0.87412   0.87951   0.88738   0.89158
 Alpha virt. eigenvalues --    0.89840   0.90221   0.90772   0.91156   0.91813
 Alpha virt. eigenvalues --    0.92698   0.93509   0.93594   0.94425   0.94754
 Alpha virt. eigenvalues --    0.95824   0.96529   0.97296   0.97388   0.98383
 Alpha virt. eigenvalues --    0.98755   0.99176   0.99503   0.99711   1.00301
 Alpha virt. eigenvalues --    1.00679   1.00976   1.01821   1.02663   1.03292
 Alpha virt. eigenvalues --    1.04166   1.04529   1.05972   1.06908   1.07112
 Alpha virt. eigenvalues --    1.07610   1.08072   1.08499   1.09332   1.09574
 Alpha virt. eigenvalues --    1.09859   1.10169   1.10888   1.11056   1.11316
 Alpha virt. eigenvalues --    1.11684   1.11953   1.13680   1.15854   1.17406
 Alpha virt. eigenvalues --    1.18796   1.19948   1.20872   1.21544   1.21991
 Alpha virt. eigenvalues --    1.22939   1.23678   1.24782   1.25120   1.26385
 Alpha virt. eigenvalues --    1.28143   1.28615   1.29363   1.29555   1.30741
 Alpha virt. eigenvalues --    1.32287   1.34787   1.36023   1.38647   1.40359
 Alpha virt. eigenvalues --    1.41068   1.41515   1.41583   1.42976   1.43414
 Alpha virt. eigenvalues --    1.43852   1.44292   1.44850   1.45799   1.46653
 Alpha virt. eigenvalues --    1.47502   1.48414   1.48800   1.49157   1.49619
 Alpha virt. eigenvalues --    1.51036   1.52734   1.53388   1.53567   1.54151
 Alpha virt. eigenvalues --    1.54783   1.55867   1.56046   1.56674   1.57048
 Alpha virt. eigenvalues --    1.58407   1.58583   1.59306   1.59651   1.59869
 Alpha virt. eigenvalues --    1.60887   1.61031   1.61241   1.61429   1.61823
 Alpha virt. eigenvalues --    1.62468   1.62590   1.63033   1.63682   1.64216
 Alpha virt. eigenvalues --    1.65072   1.66469   1.67961   1.68564   1.69638
 Alpha virt. eigenvalues --    1.70349   1.70574   1.72127   1.72404   1.73169
 Alpha virt. eigenvalues --    1.73629   1.73699   1.74057   1.74589   1.75794
 Alpha virt. eigenvalues --    1.75900   1.76508   1.77160   1.80348   1.80648
 Alpha virt. eigenvalues --    1.81217   1.81558   1.82173   1.82533   1.82862
 Alpha virt. eigenvalues --    1.83116   1.83437   1.84253   1.84452   1.85494
 Alpha virt. eigenvalues --    1.86235   1.86514   1.87193   1.88304   1.88913
 Alpha virt. eigenvalues --    1.89405   1.89517   1.90011   1.90247   1.90426
 Alpha virt. eigenvalues --    1.90491   1.91180   1.91445   1.92136   1.92740
 Alpha virt. eigenvalues --    1.92926   1.93702   1.94393   1.94448   1.95140
 Alpha virt. eigenvalues --    1.95550   1.96040   1.96260   1.97372   1.98015
 Alpha virt. eigenvalues --    1.98311   1.99296   1.99966   2.00453   2.00749
 Alpha virt. eigenvalues --    2.01419   2.02191   2.02332   2.03240   2.03488
 Alpha virt. eigenvalues --    2.05123   2.05175   2.06062   2.07318   2.08165
 Alpha virt. eigenvalues --    2.08256   2.09685   2.10957   2.12344   2.13186
 Alpha virt. eigenvalues --    2.13743   2.14786   2.16995   2.23064   2.23556
 Alpha virt. eigenvalues --    2.26052   2.26367   2.26526   2.26934   2.27230
 Alpha virt. eigenvalues --    2.28163   2.29203   2.30564   2.32548   2.32910
 Alpha virt. eigenvalues --    2.33176   2.33436   2.33664   2.33732   2.33915
 Alpha virt. eigenvalues --    2.34572   2.35048   2.36167   2.37316   2.37607
 Alpha virt. eigenvalues --    2.38708   2.40188   2.41766   2.42359   2.47913
 Alpha virt. eigenvalues --    2.49268   2.52249   2.52776   2.54026   2.55974
 Alpha virt. eigenvalues --    2.56375   2.56647   2.57343   2.58042   2.58424
 Alpha virt. eigenvalues --    2.58662   2.60133   2.60433   2.60893   2.61323
 Alpha virt. eigenvalues --    2.61926   2.62458   2.63169   2.63552   2.64055
 Alpha virt. eigenvalues --    2.64893   2.65226   2.65803   2.66043   2.66072
 Alpha virt. eigenvalues --    2.66331   2.67328   2.67713   2.68925   2.68978
 Alpha virt. eigenvalues --    2.69578   2.69720   2.69990   2.71988   2.73087
 Alpha virt. eigenvalues --    2.73448   2.73776   2.74425   2.75029   2.76207
 Alpha virt. eigenvalues --    2.77749   2.79221   2.79885   2.80085   2.81087
 Alpha virt. eigenvalues --    2.81516   2.81873   2.82187   2.83072   2.83690
 Alpha virt. eigenvalues --    2.84652   2.84865   2.85977   2.86112   2.86871
 Alpha virt. eigenvalues --    2.88174   2.90034   2.91795   2.92667   2.94305
 Alpha virt. eigenvalues --    2.94778   2.97679   2.99604   3.04178   3.05085
 Alpha virt. eigenvalues --    3.05833   3.06903   3.08283   3.08975   3.11992
 Alpha virt. eigenvalues --    3.12296   3.16072   3.16796   3.18004   3.18568
 Alpha virt. eigenvalues --    3.23957   3.24286   3.25141   3.25811   3.30490
 Alpha virt. eigenvalues --    3.30575   3.31048   3.31608   3.32754   3.33314
 Alpha virt. eigenvalues --    3.35027   3.36253   3.38875   3.40140   3.43759
 Alpha virt. eigenvalues --    3.44410   3.45932   3.46865   3.47018   3.47917
 Alpha virt. eigenvalues --    3.51883   3.51914   3.55472   3.56424   3.56796
 Alpha virt. eigenvalues --    3.57130   3.63238   3.64627   3.77701   3.77956
 Alpha virt. eigenvalues --    3.83645   3.84276   3.98730   3.99799   4.00250
 Alpha virt. eigenvalues --    4.01240   4.01580   4.02791   4.04205   4.05266
 Alpha virt. eigenvalues --    4.11443   4.11692   4.13136   4.14908   4.20816
 Alpha virt. eigenvalues --    4.22134   4.54763   4.56335   4.79430   4.79548
 Alpha virt. eigenvalues --    4.80600   4.81134   7.81776   7.83444   7.88024
 Alpha virt. eigenvalues --    7.89860  17.20614  17.21196  17.22926  17.24199
 Alpha virt. eigenvalues --   17.44489  17.46200  17.51601  17.52661  17.53002
 Alpha virt. eigenvalues --   17.54240  17.54727  17.58156  23.37062  23.38216
 Alpha virt. eigenvalues --   23.55265  23.55729  23.69759  23.70738  23.85593
 Alpha virt. eigenvalues --   23.86301  23.86895  23.87145  23.90897  23.91012
 Alpha virt. eigenvalues --   23.92550  23.92949  23.98033  23.99143  24.00903
 Alpha virt. eigenvalues --   24.01938  24.03529  24.04555  24.06974  24.07095
 Alpha virt. eigenvalues --   24.08049  24.08311  24.14384  24.14481  24.15516
 Alpha virt. eigenvalues --   24.15850 188.92920 188.94944 189.00626 189.02906
          Condensed to atoms (all electrons):
               1          2          3          4          5          6
     1  S   15.392630   0.011986  -0.059591   0.005651   0.000129   0.009489
     2  S    0.011986  15.367054  -0.000239  -0.000021   0.000308   0.002682
     3  C   -0.059591  -0.000239   4.872734   0.510088  -0.040319  -0.050169
     4  C    0.005651  -0.000021   0.510088   4.888880   0.489319  -0.050850
     5  C    0.000129   0.000308  -0.040319   0.489319   4.868847   0.511421
     6  C    0.009489   0.002682  -0.050169  -0.050850   0.511421   4.862988
     7  C    0.002882   0.010688  -0.000001   0.000000  -0.000000  -0.000001
     8  C    0.000256  -0.000436   0.000000  -0.000000   0.000000  -0.000000
     9  C    0.000004   0.006383  -0.000000   0.000000  -0.000000   0.000000
    10  C   -0.000273  -0.063528   0.000000  -0.000000   0.000000  -0.000001
    11  C    0.009660   0.319026   0.000033  -0.000002   0.000002  -0.000310
    12  C   -0.073523  -0.087012  -0.000525   0.000028  -0.000020   0.000087
    13  C    0.318592  -0.093701   0.000070  -0.000040  -0.000677   0.011269
    14  C   -0.087000   0.327232   0.015930  -0.001110   0.013450  -0.088863
    15  C   -0.099497  -0.071006  -0.000540  -0.049793  -0.029215   0.487259
    16  C    0.326549   0.009379   0.437704  -0.051422  -0.056648  -0.041421
    17  H   -0.003006   0.000022   0.422508  -0.038176   0.007504  -0.000699
    18  H    0.000108  -0.000001   0.006943  -0.041752   0.411107  -0.037138
    19  H   -0.000632   0.002998  -0.000914   0.007685  -0.039326   0.420561
    20  H    0.003262  -0.000575  -0.000003   0.000000  -0.000000   0.000000
    21  H   -0.000006   0.000099   0.000000  -0.000000  -0.000000   0.000000
    22  H   -0.000003  -0.000371  -0.000000   0.000000   0.000000   0.000000
    23  H    0.000021  -0.003364   0.000000  -0.000000   0.000000  -0.000000
    24  H   -0.000415  -0.000003  -0.042711   0.414695  -0.041733   0.007481
    25  S    0.000006  -0.000052   0.000000  -0.000000  -0.000000   0.000008
    26  S   -0.004447  -0.009572  -0.000037   0.000033   0.000024  -0.000014
    27  C   -0.000009  -0.000000   0.000004   0.000012   0.000004  -0.000009
    28  C    0.000037  -0.000001  -0.000090  -0.000442  -0.000103  -0.000017
    29  C    0.000476  -0.000008  -0.003550  -0.004876   0.000073   0.000303
    30  C   -0.005964  -0.000059  -0.002202   0.001737   0.000009   0.002128
    31  C   -0.000001  -0.000014   0.000000   0.000000  -0.000000  -0.000000
    32  C    0.000000  -0.000010  -0.000000  -0.000000   0.000000   0.000000
    33  C   -0.000001   0.000019   0.000000  -0.000000  -0.000000   0.000000
    34  C   -0.000013   0.000092  -0.000000  -0.000000  -0.000000   0.000000
    35  C    0.000070  -0.000212   0.000000  -0.000000   0.000000  -0.000000
    36  C   -0.000035   0.000012   0.000000   0.000000  -0.000000  -0.000000
    37  C    0.000067   0.000243  -0.000000  -0.000000  -0.000000  -0.000002
    38  C    0.000123  -0.000147  -0.000004   0.000001  -0.000007  -0.000026
    39  C   -0.000849   0.000234   0.000199   0.000259  -0.000078   0.000088
    40  C   -0.000023  -0.000032  -0.000004  -0.000018  -0.000004   0.000002
    41  H   -0.000000   0.000000   0.000000   0.000001   0.000000  -0.000000
    42  H   -0.000309  -0.000001   0.005075   0.006150  -0.000085  -0.000360
    43  H    0.003693  -0.000043  -0.001161  -0.002499  -0.000515  -0.001841
    44  H   -0.000000   0.000001  -0.000000   0.000000  -0.000000   0.000000
    45  H    0.000000  -0.000000  -0.000000  -0.000000   0.000000   0.000000
    46  H   -0.000000  -0.000000   0.000000   0.000000  -0.000000  -0.000000
    47  H    0.000004  -0.000003  -0.000000   0.000000   0.000000  -0.000000
    48  H    0.000003   0.000000  -0.000013  -0.000034   0.000013   0.000005
               7          8          9         10         11         12
     1  S    0.002882   0.000256   0.000004  -0.000273   0.009660  -0.073523
     2  S    0.010688  -0.000436   0.006383  -0.063528   0.319026  -0.087012
     3  C   -0.000001   0.000000  -0.000000   0.000000   0.000033  -0.000525
     4  C    0.000000  -0.000000   0.000000  -0.000000  -0.000002   0.000028
     5  C   -0.000000   0.000000  -0.000000   0.000000   0.000002  -0.000020
     6  C   -0.000001  -0.000000   0.000000  -0.000001  -0.000310   0.000087
     7  C    4.887751   0.504333  -0.049817  -0.055470  -0.039407   0.482674
     8  C    0.504333   4.894699   0.485661  -0.039446  -0.056578  -0.029723
     9  C   -0.049817   0.485661   4.894892   0.505973  -0.045516  -0.052891
    10  C   -0.055470  -0.039446   0.505973   4.869496   0.437560   0.008936
    11  C   -0.039407  -0.056578  -0.045516   0.437560   5.380371   0.406959
    12  C    0.482674  -0.029723  -0.052891   0.008936   0.406959   4.986323
    13  C   -0.092996   0.013383  -0.001191   0.017522  -0.096575   0.376632
    14  C    0.011542  -0.000620  -0.000051  -0.000429  -0.091210  -0.012031
    15  C    0.000094  -0.000016   0.000026  -0.000494   0.003245   0.021206
    16  C   -0.000289   0.000002  -0.000002   0.000033  -0.000001   0.002205
    17  H   -0.000000   0.000000  -0.000000   0.000000   0.000001  -0.000010
    18  H    0.000000  -0.000000  -0.000000   0.000000  -0.000000  -0.000000
    19  H    0.000000  -0.000000   0.000000  -0.000003  -0.000092   0.000013
    20  H    0.421317  -0.040137   0.007602  -0.000983   0.009166  -0.044432
    21  H   -0.038008   0.412447  -0.041932   0.007014   0.000209   0.007570
    22  H    0.007604  -0.043180   0.415050  -0.041067   0.008839  -0.000372
    23  H   -0.000639   0.007390  -0.037366   0.420336  -0.046444   0.007314
    24  H    0.000000   0.000000   0.000000  -0.000000  -0.000000  -0.000000
    25  S    0.000000   0.000000  -0.000000  -0.000000  -0.000000   0.000000
    26  S    0.000027  -0.000280  -0.000424  -0.001810  -0.008150   0.002783
    27  C    0.000000  -0.000000   0.000000  -0.000000  -0.000000   0.000000
    28  C   -0.000000   0.000000  -0.000000   0.000000   0.000000  -0.000000
    29  C   -0.000000  -0.000000   0.000000  -0.000000  -0.000000  -0.000000
    30  C   -0.000000  -0.000000   0.000000  -0.000000  -0.000009   0.000033
    31  C    0.000000   0.000000  -0.000000  -0.000001   0.000000   0.000001
    32  C   -0.000000  -0.000000   0.000000  -0.000002   0.000000  -0.000000
    33  C    0.000015   0.000001  -0.000093  -0.000078   0.000006   0.000013
    34  C    0.000161  -0.000689  -0.000876   0.000396   0.000449   0.000365
    35  C   -0.000162   0.000083   0.000136   0.000410  -0.000090  -0.000401
    36  C   -0.000001   0.000002   0.000006   0.000016  -0.000021   0.000003
    37  C   -0.000002  -0.000000   0.000000   0.000001  -0.000000  -0.000011
    38  C    0.000029   0.000005  -0.000004  -0.000000   0.000039   0.000158
    39  C    0.000000   0.000000  -0.000000   0.000001   0.000010  -0.000025
    40  C    0.000000   0.000000   0.000000  -0.000000  -0.000000  -0.000000
    41  H    0.000000  -0.000000   0.000000  -0.000000  -0.000000   0.000000
    42  H   -0.000000  -0.000000   0.000000  -0.000000  -0.000000   0.000000
    43  H   -0.000007   0.000000  -0.000000   0.000003   0.000008  -0.000168
    44  H    0.000000  -0.000000  -0.000000  -0.000000  -0.000000  -0.000000
    45  H   -0.000000   0.000000   0.000000   0.000000   0.000000  -0.000000
    46  H   -0.000000   0.000002   0.000021   0.000016   0.000001   0.000000
    47  H    0.000040   0.002288   0.003061   0.000366  -0.001180  -0.000607
    48  H   -0.000000  -0.000000  -0.000000   0.000000   0.000000  -0.000000
              13         14         15         16         17         18
     1  S    0.318592  -0.087000  -0.099497   0.326549  -0.003006   0.000108
     2  S   -0.093701   0.327232  -0.071006   0.009379   0.000022  -0.000001
     3  C    0.000070   0.015930  -0.000540   0.437704   0.422508   0.006943
     4  C   -0.000040  -0.001110  -0.049793  -0.051422  -0.038176  -0.041752
     5  C   -0.000677   0.013450  -0.029215  -0.056648   0.007504   0.411107
     6  C    0.011269  -0.088863   0.487259  -0.041421  -0.000699  -0.037138
     7  C   -0.092996   0.011542   0.000094  -0.000289  -0.000000   0.000000
     8  C    0.013383  -0.000620  -0.000016   0.000002   0.000000  -0.000000
     9  C   -0.001191  -0.000051   0.000026  -0.000002  -0.000000  -0.000000
    10  C    0.017522  -0.000429  -0.000494   0.000033   0.000000   0.000000
    11  C   -0.096575  -0.091210   0.003245  -0.000001   0.000001  -0.000000
    12  C    0.376632  -0.012031   0.021206   0.002205  -0.000010  -0.000000
    13  C    5.474059   0.361571  -0.016923  -0.095468  -0.000105   0.000016
    14  C    0.361571   5.435673   0.396524  -0.093968  -0.000299  -0.000465
    15  C   -0.016923   0.396524   4.949296   0.384908   0.007348   0.007472
    16  C   -0.095468  -0.093968   0.384908   5.488809  -0.048555   0.000247
    17  H   -0.000105  -0.000299   0.007348  -0.048555   0.562286  -0.000312
    18  H    0.000016  -0.000465   0.007472   0.000247  -0.000312   0.569260
    19  H    0.000122  -0.011947  -0.045486   0.008981   0.000059  -0.007599
    20  H   -0.011882   0.000042   0.000009  -0.000077   0.000000   0.000000
    21  H   -0.000462   0.000017   0.000000  -0.000000  -0.000000   0.000000
    22  H   -0.000002   0.000010  -0.000000  -0.000000   0.000000   0.000000
    23  H   -0.000340  -0.000080  -0.000007   0.000001   0.000000  -0.000000
    24  H    0.000010  -0.000002  -0.000275   0.008904  -0.007820  -0.007378
    25  S   -0.000001  -0.000008   0.000005   0.000006  -0.000000   0.000000
    26  S   -0.012696  -0.003898  -0.000554  -0.002417   0.000003   0.000000
    27  C    0.000000   0.000001  -0.000004  -0.000016   0.000000   0.000000
    28  C   -0.000001  -0.000001   0.000048   0.000116   0.000002   0.000034
    29  C    0.000030   0.000041   0.000007   0.000629   0.000124   0.000114
    30  C    0.001224  -0.000208  -0.003353  -0.011197  -0.000104   0.000016
    31  C   -0.000000   0.000000   0.000000   0.000000  -0.000000  -0.000000
    32  C    0.000000   0.000000  -0.000000   0.000000   0.000000   0.000000
    33  C   -0.000001  -0.000000   0.000000   0.000000  -0.000000  -0.000000
    34  C   -0.000056  -0.000016   0.000000  -0.000000  -0.000000  -0.000000
    35  C    0.000546   0.000093  -0.000027   0.000001   0.000000   0.000000
    36  C   -0.000005   0.000001   0.000003  -0.000000  -0.000000  -0.000000
    37  C   -0.000000  -0.000022   0.000001  -0.000002   0.000000   0.000000
    38  C    0.000306   0.000431  -0.000027   0.000046  -0.000001  -0.000000
    39  C   -0.000134  -0.000161   0.000035  -0.000320  -0.000007  -0.000008
    40  C   -0.000005   0.000002   0.000011   0.000028   0.000000  -0.000001
    41  H    0.000000   0.000000  -0.000000  -0.000000  -0.000000  -0.000000
    42  H    0.000028   0.000007  -0.000329  -0.000766   0.000302  -0.000033
    43  H   -0.004330  -0.000046  -0.000542   0.001662   0.000104   0.000023
    44  H   -0.000000  -0.000000   0.000000  -0.000000  -0.000000  -0.000000
    45  H    0.000000   0.000000  -0.000000  -0.000000   0.000000   0.000000
    46  H    0.000000  -0.000000   0.000000  -0.000000   0.000000  -0.000000
    47  H    0.000021   0.000015  -0.000001  -0.000000  -0.000000   0.000000
    48  H   -0.000000  -0.000000   0.000002   0.000002  -0.000001   0.000002
              19         20         21         22         23         24
     1  S   -0.000632   0.003262  -0.000006  -0.000003   0.000021  -0.000415
     2  S    0.002998  -0.000575   0.000099  -0.000371  -0.003364  -0.000003
     3  C   -0.000914  -0.000003   0.000000  -0.000000   0.000000  -0.042711
     4  C    0.007685   0.000000  -0.000000   0.000000  -0.000000   0.414695
     5  C   -0.039326  -0.000000  -0.000000   0.000000   0.000000  -0.041733
     6  C    0.420561   0.000000   0.000000   0.000000  -0.000000   0.007481
     7  C    0.000000   0.421317  -0.038008   0.007604  -0.000639   0.000000
     8  C   -0.000000  -0.040137   0.412447  -0.043180   0.007390   0.000000
     9  C    0.000000   0.007602  -0.041932   0.415050  -0.037366   0.000000
    10  C   -0.000003  -0.000983   0.007014  -0.041067   0.420336  -0.000000
    11  C   -0.000092   0.009166   0.000209   0.008839  -0.046444  -0.000000
    12  C    0.000013  -0.044432   0.007570  -0.000372   0.007314  -0.000000
    13  C    0.000122  -0.011882  -0.000462  -0.000002  -0.000340   0.000010
    14  C   -0.011947   0.000042   0.000017   0.000010  -0.000080  -0.000002
    15  C   -0.045486   0.000009   0.000000  -0.000000  -0.000007  -0.000275
    16  C    0.008981  -0.000077  -0.000000  -0.000000   0.000001   0.008904
    17  H    0.000059   0.000000  -0.000000   0.000000   0.000000  -0.007820
    18  H   -0.007599   0.000000   0.000000   0.000000  -0.000000  -0.007378
    19  H    0.567894   0.000000   0.000000   0.000000   0.000000  -0.000302
    20  H    0.000000   0.567661  -0.007614  -0.000304   0.000061  -0.000000
    21  H    0.000000  -0.007614   0.568708  -0.007412  -0.000312   0.000000
    22  H    0.000000  -0.000304  -0.007412   0.568415  -0.007735  -0.000000
    23  H    0.000000   0.000061  -0.000312  -0.007735   0.561437   0.000000
    24  H   -0.000302  -0.000000   0.000000  -0.000000   0.000000   0.569117
    25  S    0.000003  -0.000000   0.000000   0.000000  -0.000000   0.000000
    26  S    0.000023   0.000143   0.000001   0.000015  -0.000039   0.000001
    27  C   -0.000002   0.000000  -0.000000  -0.000000  -0.000000  -0.000001
    28  C   -0.000006  -0.000000   0.000000   0.000000   0.000000   0.000012
    29  C    0.000029  -0.000000   0.000000  -0.000000  -0.000000   0.000056
    30  C    0.000132   0.000000  -0.000000  -0.000000  -0.000000   0.000048
    31  C    0.000000   0.000000   0.000000  -0.000000  -0.000000   0.000000
    32  C   -0.000000   0.000000   0.000000   0.000000  -0.000001  -0.000000
    33  C   -0.000000   0.000000  -0.000000   0.000009   0.000022   0.000000
    34  C    0.000000   0.000010   0.000008   0.000049   0.000110   0.000000
    35  C    0.000000  -0.000010   0.000000  -0.000003   0.000006  -0.000000
    36  C    0.000000  -0.000000   0.000000  -0.000000  -0.000001   0.000000
    37  C   -0.000001   0.000000  -0.000000  -0.000000   0.000000  -0.000000
    38  C   -0.000013  -0.000005   0.000000   0.000000   0.000001  -0.000000
    39  C    0.000028  -0.000000   0.000000   0.000000   0.000000   0.000002
    40  C   -0.000000  -0.000000   0.000000  -0.000000  -0.000000  -0.000001
    41  H    0.000000   0.000000  -0.000000   0.000000  -0.000000  -0.000000
    42  H    0.000004  -0.000000  -0.000000   0.000000  -0.000000   0.000228
    43  H    0.000001   0.000002  -0.000000   0.000000   0.000000   0.000024
    44  H    0.000000   0.000000   0.000000   0.000000   0.000000   0.000000
    45  H   -0.000000  -0.000000  -0.000000  -0.000000  -0.000000   0.000000
    46  H    0.000000  -0.000000  -0.000000   0.000003   0.000001  -0.000000
    47  H   -0.000000   0.000015   0.000060   0.000080   0.000033  -0.000000
    48  H   -0.000000   0.000000   0.000000   0.000000   0.000000   0.000005
              25         26         27         28         29         30
     1  S    0.000006  -0.004447  -0.000009   0.000037   0.000476  -0.005964
     2  S   -0.000052  -0.009572  -0.000000  -0.000001  -0.000008  -0.000059
     3  C    0.000000  -0.000037   0.000004  -0.000090  -0.003550  -0.002202
     4  C   -0.000000   0.000033   0.000012  -0.000442  -0.004876   0.001737
     5  C   -0.000000   0.000024   0.000004  -0.000103   0.000073   0.000009
     6  C    0.000008  -0.000014  -0.000009  -0.000017   0.000303   0.002128
     7  C    0.000000   0.000027   0.000000  -0.000000  -0.000000  -0.000000
     8  C    0.000000  -0.000280  -0.000000   0.000000  -0.000000  -0.000000
     9  C   -0.000000  -0.000424   0.000000  -0.000000   0.000000   0.000000
    10  C   -0.000000  -0.001810  -0.000000   0.000000  -0.000000  -0.000000
    11  C   -0.000000  -0.008150  -0.000000   0.000000  -0.000000  -0.000009
    12  C    0.000000   0.002783   0.000000  -0.000000  -0.000000   0.000033
    13  C   -0.000001  -0.012696   0.000000  -0.000001   0.000030   0.001224
    14  C   -0.000008  -0.003898   0.000001  -0.000001   0.000041  -0.000208
    15  C    0.000005  -0.000554  -0.000004   0.000048   0.000007  -0.003353
    16  C    0.000006  -0.002417  -0.000016   0.000116   0.000629  -0.011197
    17  H   -0.000000   0.000003   0.000000   0.000002   0.000124  -0.000104
    18  H    0.000000   0.000000   0.000000   0.000034   0.000114   0.000016
    19  H    0.000003   0.000023  -0.000002  -0.000006   0.000029   0.000132
    20  H   -0.000000   0.000143   0.000000  -0.000000  -0.000000   0.000000
    21  H    0.000000   0.000001  -0.000000   0.000000   0.000000  -0.000000
    22  H    0.000000   0.000015  -0.000000   0.000000  -0.000000  -0.000000
    23  H   -0.000000  -0.000039  -0.000000   0.000000  -0.000000  -0.000000
    24  H    0.000000   0.000001  -0.000001   0.000012   0.000056   0.000048
    25  S   15.384006   0.009173  -0.063043   0.006194  -0.000259   0.010036
    26  S    0.009173  15.391280  -0.000094  -0.000082   0.000346   0.001110
    27  C   -0.063043  -0.000094   4.880286   0.501811  -0.031193  -0.063377
    28  C    0.006194  -0.000082   0.501811   4.898143   0.476366  -0.039508
    29  C   -0.000259   0.000346  -0.031193   0.476366   4.916376   0.491090
    30  C    0.010036   0.001110  -0.063377  -0.039508   0.491090   4.899993
    31  C    0.002615   0.009773  -0.000000   0.000000  -0.000000  -0.000002
    32  C    0.000310  -0.000358   0.000000  -0.000000   0.000000  -0.000000
    33  C   -0.000029   0.006171  -0.000000   0.000000  -0.000000  -0.000000
    34  C   -0.000208  -0.063357   0.000000  -0.000000   0.000000  -0.000001
    35  C    0.009175   0.284992   0.000034  -0.000002   0.000004  -0.000251
    36  C   -0.070755  -0.093439  -0.000514   0.000027  -0.000018   0.000058
    37  C    0.315588  -0.096369  -0.000592   0.000009  -0.000692   0.012225
    38  C   -0.093408   0.295260   0.018886  -0.001710   0.015977  -0.091972
    39  C   -0.087443  -0.071967   0.016889  -0.059883  -0.007706   0.470224
    40  C    0.305436   0.007863   0.433177  -0.041753  -0.063108  -0.035601
    41  H   -0.003366   0.000025   0.419700  -0.037862   0.007595  -0.000681
    42  H    0.000110   0.000004   0.007732  -0.046225   0.409348  -0.039146
    43  H   -0.000655   0.004895  -0.001865   0.009367  -0.048447   0.410749
    44  H    0.003308  -0.000689  -0.000003   0.000000  -0.000000   0.000000
    45  H   -0.000003   0.000124   0.000000  -0.000000  -0.000000   0.000000
    46  H   -0.000003  -0.000368  -0.000000   0.000000   0.000000   0.000000
    47  H    0.000018  -0.003494   0.000000  -0.000000   0.000000  -0.000000
    48  H   -0.000373  -0.000003  -0.042593   0.414639  -0.043991   0.008052
              31         32         33         34         35         36
     1  S   -0.000001   0.000000  -0.000001  -0.000013   0.000070  -0.000035
     2  S   -0.000014  -0.000010   0.000019   0.000092  -0.000212   0.000012
     3  C    0.000000  -0.000000   0.000000  -0.000000   0.000000   0.000000
     4  C    0.000000  -0.000000  -0.000000  -0.000000  -0.000000   0.000000
     5  C   -0.000000   0.000000  -0.000000  -0.000000   0.000000  -0.000000
     6  C   -0.000000   0.000000   0.000000   0.000000  -0.000000  -0.000000
     7  C    0.000000  -0.000000   0.000015   0.000161  -0.000162  -0.000001
     8  C    0.000000  -0.000000   0.000001  -0.000689   0.000083   0.000002
     9  C   -0.000000   0.000000  -0.000093  -0.000876   0.000136   0.000006
    10  C   -0.000001  -0.000002  -0.000078   0.000396   0.000410   0.000016
    11  C    0.000000   0.000000   0.000006   0.000449  -0.000090  -0.000021
    12  C    0.000001  -0.000000   0.000013   0.000365  -0.000401   0.000003
    13  C   -0.000000   0.000000  -0.000001  -0.000056   0.000546  -0.000005
    14  C    0.000000   0.000000  -0.000000  -0.000016   0.000093   0.000001
    15  C    0.000000  -0.000000   0.000000   0.000000  -0.000027   0.000003
    16  C    0.000000   0.000000   0.000000  -0.000000   0.000001  -0.000000
    17  H   -0.000000   0.000000  -0.000000  -0.000000   0.000000  -0.000000
    18  H   -0.000000   0.000000  -0.000000  -0.000000   0.000000  -0.000000
    19  H    0.000000  -0.000000  -0.000000   0.000000   0.000000   0.000000
    20  H    0.000000   0.000000   0.000000   0.000010  -0.000010  -0.000000
    21  H    0.000000   0.000000  -0.000000   0.000008   0.000000   0.000000
    22  H   -0.000000   0.000000   0.000009   0.000049  -0.000003  -0.000000
    23  H   -0.000000  -0.000001   0.000022   0.000110   0.000006  -0.000001
    24  H    0.000000  -0.000000   0.000000   0.000000  -0.000000   0.000000
    25  S    0.002615   0.000310  -0.000029  -0.000208   0.009175  -0.070755
    26  S    0.009773  -0.000358   0.006171  -0.063357   0.284992  -0.093439
    27  C   -0.000000   0.000000  -0.000000   0.000000   0.000034  -0.000514
    28  C    0.000000  -0.000000   0.000000  -0.000000  -0.000002   0.000027
    29  C   -0.000000   0.000000  -0.000000   0.000000   0.000004  -0.000018
    30  C   -0.000002  -0.000000  -0.000000  -0.000001  -0.000251   0.000058
    31  C    4.887268   0.508313  -0.048908  -0.056551  -0.044303   0.479049
    32  C    0.508313   4.884395   0.488822  -0.038365  -0.055961  -0.027661
    33  C   -0.048908   0.488822   4.895540   0.506853  -0.045582  -0.052973
    34  C   -0.056551  -0.038365   0.506853   4.870987   0.443960   0.009672
    35  C   -0.044303  -0.055961  -0.045582   0.443960   5.424836   0.413249
    36  C    0.479049  -0.027661  -0.052973   0.009672   0.413249   4.956638
    37  C   -0.090904   0.013553  -0.001254   0.018045  -0.098276   0.393067
    38  C    0.011261  -0.000611  -0.000014  -0.000591  -0.076867  -0.013178
    39  C   -0.000009  -0.000016   0.000025  -0.000516   0.003903   0.021237
    40  C   -0.000293   0.000002  -0.000002   0.000033  -0.000098   0.003611
    41  H   -0.000000   0.000000  -0.000000   0.000000   0.000001  -0.000008
    42  H    0.000000  -0.000000   0.000000  -0.000000  -0.000000  -0.000000
    43  H   -0.000001  -0.000000  -0.000000  -0.000004  -0.000249   0.000027
    44  H    0.419180  -0.040251   0.007630  -0.000956   0.009071  -0.045086
    45  H   -0.038596   0.411364  -0.042608   0.007115   0.000240   0.007641
    46  H    0.007770  -0.043654   0.414357  -0.041936   0.009047  -0.000352
    47  H   -0.000721   0.007245  -0.039039   0.415162  -0.043126   0.007380
    48  H    0.000000   0.000000   0.000000  -0.000000  -0.000000  -0.000000
              37         38         39         40         41         42
     1  S    0.000067   0.000123  -0.000849  -0.000023  -0.000000  -0.000309
     2  S    0.000243  -0.000147   0.000234  -0.000032   0.000000  -0.000001
     3  C   -0.000000  -0.000004   0.000199  -0.000004   0.000000   0.005075
     4  C   -0.000000   0.000001   0.000259  -0.000018   0.000001   0.006150
     5  C   -0.000000  -0.000007  -0.000078  -0.000004   0.000000  -0.000085
     6  C   -0.000002  -0.000026   0.000088   0.000002  -0.000000  -0.000360
     7  C   -0.000002   0.000029   0.000000   0.000000   0.000000  -0.000000
     8  C   -0.000000   0.000005   0.000000   0.000000  -0.000000  -0.000000
     9  C    0.000000  -0.000004  -0.000000   0.000000   0.000000   0.000000
    10  C    0.000001  -0.000000   0.000001  -0.000000  -0.000000  -0.000000
    11  C   -0.000000   0.000039   0.000010  -0.000000  -0.000000  -0.000000
    12  C   -0.000011   0.000158  -0.000025  -0.000000   0.000000   0.000000
    13  C   -0.000000   0.000306  -0.000134  -0.000005   0.000000   0.000028
    14  C   -0.000022   0.000431  -0.000161   0.000002   0.000000   0.000007
    15  C    0.000001  -0.000027   0.000035   0.000011  -0.000000  -0.000329
    16  C   -0.000002   0.000046  -0.000320   0.000028  -0.000000  -0.000766
    17  H    0.000000  -0.000001  -0.000007   0.000000  -0.000000   0.000302
    18  H    0.000000  -0.000000  -0.000008  -0.000001  -0.000000  -0.000033
    19  H   -0.000001  -0.000013   0.000028  -0.000000   0.000000   0.000004
    20  H    0.000000  -0.000005  -0.000000  -0.000000   0.000000  -0.000000
    21  H   -0.000000   0.000000   0.000000   0.000000  -0.000000  -0.000000
    22  H   -0.000000   0.000000   0.000000  -0.000000   0.000000   0.000000
    23  H    0.000000   0.000001   0.000000  -0.000000  -0.000000  -0.000000
    24  H   -0.000000  -0.000000   0.000002  -0.000001  -0.000000   0.000228
    25  S    0.315588  -0.093408  -0.087443   0.305436  -0.003366   0.000110
    26  S   -0.096369   0.295260  -0.071967   0.007863   0.000025   0.000004
    27  C   -0.000592   0.018886   0.016889   0.433177   0.419700   0.007732
    28  C    0.000009  -0.001710  -0.059883  -0.041753  -0.037862  -0.046225
    29  C   -0.000692   0.015977  -0.007706  -0.063108   0.007595   0.409348
    30  C    0.012225  -0.091972   0.470224  -0.035601  -0.000681  -0.039146
    31  C   -0.090904   0.011261  -0.000009  -0.000293  -0.000000   0.000000
    32  C    0.013553  -0.000611  -0.000016   0.000002   0.000000  -0.000000
    33  C   -0.001254  -0.000014   0.000025  -0.000002  -0.000000   0.000000
    34  C    0.018045  -0.000591  -0.000516   0.000033   0.000000  -0.000000
    35  C   -0.098276  -0.076867   0.003903  -0.000098   0.000001  -0.000000
    36  C    0.393067  -0.013178   0.021237   0.003611  -0.000008  -0.000000
    37  C    5.472459   0.362164  -0.007696  -0.087835  -0.000118   0.000018
    38  C    0.362164   5.492700   0.393846  -0.104132  -0.000330  -0.000411
    39  C   -0.007696   0.393846   4.982517   0.399784   0.007354   0.008903
    40  C   -0.087835  -0.104132   0.399784   5.402569  -0.047964  -0.000167
    41  H   -0.000118  -0.000330   0.007354  -0.047964   0.569608  -0.000319
    42  H    0.000018  -0.000411   0.008903  -0.000167  -0.000319   0.579607
    43  H    0.000294  -0.017352  -0.053966   0.010804   0.000062  -0.009979
    44  H   -0.012288   0.000098   0.000020  -0.000110   0.000000   0.000000
    45  H   -0.000469   0.000015  -0.000000  -0.000000  -0.000000   0.000000
    46  H   -0.000004   0.000010  -0.000000  -0.000000   0.000000   0.000000
    47  H   -0.000258  -0.000172  -0.000009   0.000001   0.000000  -0.000000
    48  H    0.000010  -0.000005  -0.000494   0.009165  -0.007953  -0.007984
              43         44         45         46         47         48
     1  S    0.003693  -0.000000   0.000000  -0.000000   0.000004   0.000003
     2  S   -0.000043   0.000001  -0.000000  -0.000000  -0.000003   0.000000
     3  C   -0.001161  -0.000000  -0.000000   0.000000  -0.000000  -0.000013
     4  C   -0.002499   0.000000  -0.000000   0.000000   0.000000  -0.000034
     5  C   -0.000515  -0.000000   0.000000  -0.000000   0.000000   0.000013
     6  C   -0.001841   0.000000   0.000000  -0.000000  -0.000000   0.000005
     7  C   -0.000007   0.000000  -0.000000  -0.000000   0.000040  -0.000000
     8  C    0.000000  -0.000000   0.000000   0.000002   0.002288  -0.000000
     9  C   -0.000000  -0.000000   0.000000   0.000021   0.003061  -0.000000
    10  C    0.000003  -0.000000   0.000000   0.000016   0.000366   0.000000
    11  C    0.000008  -0.000000   0.000000   0.000001  -0.001180   0.000000
    12  C   -0.000168  -0.000000  -0.000000   0.000000  -0.000607  -0.000000
    13  C   -0.004330  -0.000000   0.000000   0.000000   0.000021  -0.000000
    14  C   -0.000046  -0.000000   0.000000  -0.000000   0.000015  -0.000000
    15  C   -0.000542   0.000000  -0.000000   0.000000  -0.000001   0.000002
    16  C    0.001662  -0.000000  -0.000000  -0.000000  -0.000000   0.000002
    17  H    0.000104  -0.000000   0.000000   0.000000  -0.000000  -0.000001
    18  H    0.000023  -0.000000   0.000000  -0.000000   0.000000   0.000002
    19  H    0.000001   0.000000  -0.000000   0.000000  -0.000000  -0.000000
    20  H    0.000002   0.000000  -0.000000  -0.000000   0.000015   0.000000
    21  H   -0.000000   0.000000  -0.000000  -0.000000   0.000060   0.000000
    22  H    0.000000   0.000000  -0.000000   0.000003   0.000080   0.000000
    23  H    0.000000   0.000000  -0.000000   0.000001   0.000033   0.000000
    24  H    0.000024   0.000000   0.000000  -0.000000  -0.000000   0.000005
    25  S   -0.000655   0.003308  -0.000003  -0.000003   0.000018  -0.000373
    26  S    0.004895  -0.000689   0.000124  -0.000368  -0.003494  -0.000003
    27  C   -0.001865  -0.000003   0.000000  -0.000000   0.000000  -0.042593
    28  C    0.009367   0.000000  -0.000000   0.000000  -0.000000   0.414639
    29  C   -0.048447  -0.000000  -0.000000   0.000000   0.000000  -0.043991
    30  C    0.410749   0.000000   0.000000   0.000000  -0.000000   0.008052
    31  C   -0.000001   0.419180  -0.038596   0.007770  -0.000721   0.000000
    32  C   -0.000000  -0.040251   0.411364  -0.043654   0.007245   0.000000
    33  C   -0.000000   0.007630  -0.042608   0.414357  -0.039039   0.000000
    34  C   -0.000004  -0.000956   0.007115  -0.041936   0.415162  -0.000000
    35  C   -0.000249   0.009071   0.000240   0.009047  -0.043126  -0.000000
    36  C    0.000027  -0.045086   0.007641  -0.000352   0.007380  -0.000000
    37  C    0.000294  -0.012288  -0.000469  -0.000004  -0.000258   0.000010
    38  C   -0.017352   0.000098   0.000015   0.000010  -0.000172  -0.000005
    39  C   -0.053966   0.000020  -0.000000  -0.000000  -0.000009  -0.000494
    40  C    0.010804  -0.000110  -0.000000  -0.000000   0.000001   0.009165
    41  H    0.000062   0.000000  -0.000000   0.000000   0.000000  -0.007953
    42  H   -0.009979   0.000000   0.000000   0.000000  -0.000000  -0.007984
    43  H    0.592621   0.000000   0.000000   0.000000   0.000001  -0.000282
    44  H    0.000000   0.574697  -0.007757  -0.000315   0.000060   0.000000
    45  H    0.000000  -0.007757   0.576266  -0.007655  -0.000307   0.000000
    46  H    0.000000  -0.000315  -0.007655   0.576773  -0.007588  -0.000000
    47  H    0.000001   0.000060  -0.000307  -0.007588   0.551586   0.000000
    48  H   -0.000282   0.000000   0.000000  -0.000000   0.000000   0.578006
 Mulliken charges:
               1
     1  S    0.249901
     2  S    0.271953
     3  C   -0.069216
     4  C   -0.083502
     5  C   -0.093479
     6  C   -0.044047
     7  C   -0.052360
     8  C   -0.109445
     9  C   -0.088650
    10  C   -0.064495
    11  C   -0.190003
    12  C   -0.001549
    13  C   -0.147810
    14  C   -0.170148
    15  C    0.060592
    16  C   -0.267643
    17  H    0.098832
    18  H    0.099344
    19  H    0.097791
    20  H    0.096730
    21  H    0.099614
    22  H    0.100375
    23  H    0.099594
    24  H    0.100058
    25  S    0.273610
    26  S    0.360490
    27  C   -0.075223
    28  C   -0.079117
    29  C   -0.115137
    30  C   -0.015226
    31  C   -0.044928
    32  C   -0.107115
    33  C   -0.088900
    34  C   -0.069332
    35  C   -0.234237
    36  C    0.012349
    37  C   -0.190948
    38  C   -0.190372
    39  C   -0.014270
    40  C   -0.191337
    41  H    0.094256
    42  H    0.088598
[...]
 Alpha  occ. eigenvalues --   -0.43459  -0.43123  -0.40830  -0.40503  -0.39185
 Alpha  occ. eigenvalues --   -0.37284  -0.36629  -0.36204  -0.34755  -0.34568
 Alpha  occ. eigenvalues --   -0.34541  -0.32716  -0.28877  -0.28202  -0.24977
 Alpha  occ. eigenvalues --   -0.22873  -0.21142
 Alpha virt. eigenvalues --   -0.05634  -0.02355  -0.01598  -0.00538   0.00529
 Alpha virt. eigenvalues --    0.01814   0.04007   0.04132   0.04932   0.06274
 Alpha virt. eigenvalues --    0.07391   0.07898   0.08378   0.11281   0.12155
 Alpha virt. eigenvalues --    0.12961   0.13135   0.13213   0.14000   0.15845
 Alpha virt. eigenvalues --    0.16155   0.17707   0.19343   0.20644   0.23011
 Alpha virt. eigenvalues --    0.23156   0.24325   0.26898   0.27563   0.27686
 Alpha virt. eigenvalues --    0.28436   0.28987   0.29457   0.32879   0.34471
 Alpha virt. eigenvalues --    0.35827   0.37143   0.37441   0.38214   0.38784
 Alpha virt. eigenvalues --    0.38883   0.39778   0.40122   0.40604   0.41645
 Alpha virt. eigenvalues --    0.42095   0.42530   0.42664   0.44115   0.44468
 Alpha virt. eigenvalues --    0.44601   0.45384   0.45598   0.45806   0.45855
 Alpha virt. eigenvalues --    0.48376   0.49289   0.49469   0.50769   0.51611
 Alpha virt. eigenvalues --    0.53255   0.54814   0.56289   0.57147   0.58053
 Alpha virt. eigenvalues --    0.58699   0.59093   0.59418   0.59908   0.60359
 Alpha virt. eigenvalues --    0.60411   0.61634   0.62056   0.63624   0.63701
 Alpha virt. eigenvalues --    0.64647   0.66103   0.69589   0.70213   0.71869
 Alpha virt. eigenvalues --    0.72254   0.72781   0.73141   0.73662   0.74647
 Alpha virt. eigenvalues --    0.75797   0.76581   0.77499   0.78874   0.80151
 Alpha virt. eigenvalues --    0.80162   0.81842   0.83225   0.84213   0.84656
 Alpha virt. eigenvalues --    0.85760   0.85988   0.88325   0.88907   0.90285
 Alpha virt. eigenvalues --    0.90749   0.92271   0.93486   0.95972   0.96735
 Alpha virt. eigenvalues --    0.96752   0.98696   0.99409   1.00269   1.01682
 Alpha virt. eigenvalues --    1.02841   1.06057   1.06378   1.07540   1.08927
 Alpha virt. eigenvalues --    1.08966   1.09370   1.10726   1.11288   1.15743
 Alpha virt. eigenvalues --    1.18261   1.20259   1.21824   1.22319   1.24553
 Alpha virt. eigenvalues --    1.27961   1.28574   1.28963   1.34786   1.38700
 Alpha virt. eigenvalues --    1.40575   1.41488   1.42794   1.44201   1.44815
 Alpha virt. eigenvalues --    1.47146   1.47767   1.48942   1.52381   1.53863
 Alpha virt. eigenvalues --    1.53968   1.55929   1.56261   1.57906   1.58887
 Alpha virt. eigenvalues --    1.59642   1.60508   1.61021   1.61377   1.62167
 Alpha virt. eigenvalues --    1.63004   1.67111   1.69298   1.70368   1.71950
 Alpha virt. eigenvalues --    1.72872   1.73402   1.74565   1.75625   1.80208
 Alpha virt. eigenvalues --    1.80449   1.81565   1.82362   1.83269   1.83805
 Alpha virt. eigenvalues --    1.84229   1.86699   1.88786   1.89364   1.89440
 Alpha virt. eigenvalues --    1.89832   1.90823   1.90933   1.93661   1.93791
 Alpha virt. eigenvalues --    1.93885   1.96146   1.96192   1.98879   1.99490
 Alpha virt. eigenvalues --    2.00049   2.01111   2.02442   2.03435   2.06509
 Alpha virt. eigenvalues --    2.08045   2.10951   2.12006   2.14109   2.22431
 Alpha virt. eigenvalues --    2.25160   2.26306   2.26613   2.27653   2.32650
 Alpha virt. eigenvalues --    2.32800   2.32874   2.33279   2.34000   2.35759
 Alpha virt. eigenvalues --    2.37461   2.40468   2.47840   2.51992   2.53565
 Alpha virt. eigenvalues --    2.55488   2.56345   2.57262   2.59883   2.60227
 Alpha virt. eigenvalues --    2.61400   2.61610   2.62145   2.63709   2.64452
 Alpha virt. eigenvalues --    2.65123   2.65897   2.68911   2.68924   2.68999
 Alpha virt. eigenvalues --    2.70411   2.71688   2.73533   2.77368   2.79988
 Alpha virt. eigenvalues --    2.81351   2.81647   2.82207   2.83175   2.83583
 Alpha virt. eigenvalues --    2.87662   2.91705   2.92379   2.97020   3.03978
 Alpha virt. eigenvalues --    3.04299   3.07287   3.10371   3.15514   3.17190
 Alpha virt. eigenvalues --    3.23369   3.24266   3.29670   3.30263   3.31902
 Alpha virt. eigenvalues --    3.34398   3.38725   3.42628   3.44598   3.45777
 Alpha virt. eigenvalues --    3.50498   3.54556   3.55826   3.62654   3.75968
 Alpha virt. eigenvalues --    3.82196   3.98588   4.00437   4.01595   4.03790
 Alpha virt. eigenvalues --    4.11484   4.11840   4.19784   4.54946   4.79699
 Alpha virt. eigenvalues --    4.79826   7.81119   7.83950  17.19636  17.21067
 Alpha virt. eigenvalues --   17.43715  17.51189  17.52288  17.53379  23.35373
 Alpha virt. eigenvalues --   23.53812  23.68918  23.85655  23.85823  23.90157
 Alpha virt. eigenvalues --   23.92087  23.98132  24.01115  24.03741  24.07284
 Alpha virt. eigenvalues --   24.07407  24.14660  24.14770 188.92517 188.95387
          Condensed to atoms (all electrons):
              25         26         27         28         29         30
    25  S   15.370515   0.009508  -0.061459   0.005886  -0.000104   0.009383
    26  S    0.009508  15.370517  -0.000169  -0.000038   0.000327   0.002373
    27  C   -0.061459  -0.000169   4.861983   0.512589  -0.040621  -0.053509
    28  C    0.005886  -0.000038   0.512589   4.879657   0.492492  -0.051837
    29  C   -0.000104   0.000327  -0.040621   0.492492   4.878926   0.511522
    30  C    0.009383   0.002373  -0.053509  -0.051837   0.511522   4.875454
    31  C    0.002373   0.009383  -0.000001   0.000000  -0.000000  -0.000001
    32  C    0.000327  -0.000104   0.000000  -0.000000   0.000000  -0.000000
    33  C   -0.000038   0.005887  -0.000000   0.000000  -0.000000   0.000000
    34  C   -0.000169  -0.061459   0.000000  -0.000000   0.000000  -0.000001
    35  C    0.008662   0.306200   0.000033  -0.000002   0.000002  -0.000301
    36  C   -0.070638  -0.088262  -0.000510   0.000027  -0.000018   0.000095
    37  C    0.316754  -0.092100  -0.000489  -0.000022  -0.000613   0.011534
    38  C   -0.092100   0.316754   0.017255  -0.001043   0.013324  -0.089213
    39  C   -0.088262  -0.070639   0.006580  -0.049993  -0.029892   0.486113
    40  C    0.306200   0.008663   0.443295  -0.047946  -0.054761  -0.045312
    41  H   -0.003185   0.000023   0.419541  -0.037063   0.007347  -0.000568
    42  H    0.000110  -0.000002   0.007001  -0.041820   0.411184  -0.038062
    43  H   -0.000642   0.003289  -0.000908   0.007555  -0.039507   0.419764
    44  H    0.003289  -0.000642  -0.000003   0.000000  -0.000000   0.000000
    45  H   -0.000002   0.000110   0.000000  -0.000000  -0.000000   0.000000
    46  H   -0.000003  -0.000371  -0.000000   0.000000   0.000000   0.000000
    47  H    0.000023  -0.003185   0.000000  -0.000000   0.000000  -0.000000
    48  H   -0.000371  -0.000003  -0.041208   0.413909  -0.042676   0.007627
              31         32         33         34         35         36
    25  S    0.002373   0.000327  -0.000038  -0.000169   0.008662  -0.070638
    26  S    0.009383  -0.000104   0.005887  -0.061459   0.306200  -0.088262
    27  C   -0.000001   0.000000  -0.000000   0.000000   0.000033  -0.000510
    28  C    0.000000  -0.000000   0.000000  -0.000000  -0.000002   0.000027
    29  C   -0.000000   0.000000  -0.000000   0.000000   0.000002  -0.000018
    30  C   -0.000001  -0.000000   0.000000  -0.000001  -0.000301   0.000095
    31  C    4.875455   0.511521  -0.051836  -0.053510  -0.045311   0.486112
    32  C    0.511521   4.878927   0.492492  -0.040621  -0.054762  -0.029891
    33  C   -0.051836   0.492492   4.879659   0.512587  -0.047945  -0.049993
    34  C   -0.053510  -0.040621   0.512587   4.861984   0.443295   0.006581
    35  C   -0.045311  -0.054762  -0.047945   0.443295   5.390433   0.412305
    36  C    0.486112  -0.029891  -0.049993   0.006581   0.412305   4.949775
    37  C   -0.089213   0.013324  -0.001043   0.017255  -0.096655   0.392924
    38  C    0.011534  -0.000613  -0.000022  -0.000489  -0.086690  -0.014503
    39  C    0.000095  -0.000018   0.000027  -0.000510   0.003450   0.021083
    40  C   -0.000301   0.000002  -0.000002   0.000033  -0.000008   0.003450
    41  H   -0.000000   0.000000  -0.000000   0.000000   0.000001  -0.000009
    42  H    0.000000  -0.000000  -0.000000   0.000000  -0.000000  -0.000000
    43  H    0.000000  -0.000000   0.000000  -0.000003  -0.000107   0.000013
    44  H    0.419764  -0.039507   0.007555  -0.000908   0.008942  -0.045792
    45  H   -0.038062   0.411184  -0.041820   0.007001   0.000281   0.007544
    46  H    0.007627  -0.042676   0.413909  -0.041208   0.008882  -0.000338
    47  H   -0.000568   0.007347  -0.037063   0.419542  -0.047521   0.007228
    48  H    0.000000   0.000000   0.000000  -0.000000  -0.000000  -0.000000
              37         38         39         40         41         42
    25  S    0.316754  -0.092100  -0.088262   0.306200  -0.003185   0.000110
    26  S   -0.092100   0.316754  -0.070639   0.008663   0.000023  -0.000002
    27  C   -0.000489   0.017255   0.006580   0.443295   0.419541   0.007001
    28  C   -0.000022  -0.001043  -0.049993  -0.047946  -0.037063  -0.041820
    29  C   -0.000613   0.013324  -0.029892  -0.054761   0.007347   0.411184
    30  C    0.011534  -0.089213   0.486113  -0.045312  -0.000568  -0.038062
    31  C   -0.089213   0.011534   0.000095  -0.000301  -0.000000   0.000000
    32  C    0.013324  -0.000613  -0.000018   0.000002   0.000000  -0.000000
    33  C   -0.001043  -0.000022   0.000027  -0.000002  -0.000000  -0.000000
    34  C    0.017255  -0.000489  -0.000510   0.000033   0.000000   0.000000
    35  C   -0.096655  -0.086690   0.003450  -0.000008   0.000001  -0.000000
    36  C    0.392924  -0.014503   0.021083   0.003450  -0.000009  -0.000000
    37  C    5.458989   0.363440  -0.014503  -0.086690  -0.000118   0.000016
    38  C    0.363440   5.458987   0.392925  -0.096654  -0.000333  -0.000469
    39  C   -0.014503   0.392925   4.949773   0.412306   0.007228   0.007544
    40  C   -0.086690  -0.096654   0.412306   5.390433  -0.047521   0.000281
    41  H   -0.000118  -0.000333   0.007228  -0.047521   0.565101  -0.000321
    42  H    0.000016  -0.000469   0.007544   0.000281  -0.000321   0.571825
    43  H    0.000092  -0.012024  -0.045792   0.008942   0.000064  -0.007644
    44  H   -0.012024   0.000092   0.000013  -0.000107   0.000000   0.000000
    45  H   -0.000469   0.000016  -0.000000  -0.000000  -0.000000   0.000000
    46  H   -0.000002   0.000010  -0.000000  -0.000000   0.000000   0.000000
    47  H   -0.000333  -0.000118  -0.000009   0.000001   0.000000  -0.000000
    48  H    0.000010  -0.000002  -0.000338   0.008882  -0.007754  -0.007454
              43         44         45         46         47         48
    25  S   -0.000642   0.003289  -0.000002  -0.000003   0.000023  -0.000371
    26  S    0.003289  -0.000642   0.000110  -0.000371  -0.003185  -0.000003
    27  C   -0.000908  -0.000003   0.000000  -0.000000   0.000000  -0.041208
    28  C    0.007555   0.000000  -0.000000   0.000000  -0.000000   0.413909
    29  C   -0.039507  -0.000000  -0.000000   0.000000   0.000000  -0.042676
    30  C    0.419764   0.000000   0.000000   0.000000  -0.000000   0.007627
    31  C    0.000000   0.419764  -0.038062   0.007627  -0.000568   0.000000
    32  C   -0.000000  -0.039507   0.411184  -0.042676   0.007347   0.000000
    33  C    0.000000   0.007555  -0.041820   0.413909  -0.037063   0.000000
    34  C   -0.000003  -0.000908   0.007001  -0.041208   0.419542  -0.000000
    35  C   -0.000107   0.008942   0.000281   0.008882  -0.047521  -0.000000
    36  C    0.000013  -0.045792   0.007544  -0.000338   0.007228  -0.000000
    37  C    0.000092  -0.012024  -0.000469  -0.000002  -0.000333   0.000010
    38  C   -0.012024   0.000092   0.000016   0.000010  -0.000118  -0.000002
    39  C   -0.045792   0.000013  -0.000000  -0.000000  -0.000009  -0.000338
    40  C    0.008942  -0.000107  -0.000000  -0.000000   0.000001   0.008882
    41  H    0.000064   0.000000  -0.000000   0.000000   0.000000  -0.007754
    42  H   -0.007644   0.000000   0.000000   0.000000  -0.000000  -0.007454
    43  H    0.571389   0.000000   0.000000   0.000000   0.000000  -0.000308
    44  H    0.000000   0.571389  -0.007644  -0.000308   0.000064   0.000000
    45  H    0.000000  -0.007644   0.571825  -0.007454  -0.000321   0.000000
    46  H    0.000000  -0.000308  -0.007454   0.570652  -0.007754  -0.000000
    47  H    0.000000   0.000064  -0.000321  -0.007754   0.565100   0.000000
    48  H   -0.000308   0.000000   0.000000  -0.000000   0.000000   0.570652
 Mulliken charges:
               1
     1  S    0.000000
     2  S    0.000000
     3  C    0.000000
     4  C    0.000000
     5  C    0.000000
     6  C    0.000000
     7  C    0.000000
     8  C    0.000000
     9  C    0.000000
    10  C    0.000000
    11  C    0.000000
    12  C    0.000000
    13  C    0.000000
    14  C    0.000000
    15  C    0.000000
    16  C    0.000000
    17  H    0.000000
    18  H    0.000000
    19  H    0.000000
    20  H    0.000000
    21  H    0.000000
    22  H    0.000000
    23  H    0.000000
    24  H    0.000000
    25  S    0.283942
    26  S    0.283940
    27  C   -0.069401
    28  C   -0.082349
    29  C   -0.106933
    30  C   -0.045064
    31  C   -0.045063
    32  C   -0.106934
    33  C   -0.082350
    34  C   -0.069401
    35  C   -0.203184
    36  C    0.012818
    37  C   -0.180066
    38  C   -0.180066
    39  C    0.012818
    40  C   -0.203185
    41  H    0.097567
    42  H    0.097812
    43  H    0.095826
    44  H    0.095826
    45  H    0.097812
    46  H    0.099034
    47  H    0.097567
    48  H    0.099034
 Sum of Mulliken charges =  -0.00000
 Mulliken charges with hydrogens summed into heavy atoms:
               1
     1  S    0.000000
     2  S    0.000000
     3  C    0.000000
     4  C    0.000000
     5  C    0.000000
     6  C    0.000000
     7  C    0.000000
     8  C    0.000000
     9  C    0.000000
    10  C    0.000000
    11  C    0.000000
    12  C    0.000000
    13  C    0.000000
    14  C    0.000000
    15  C    0.000000
    16  C    0.000000
    25  S    0.283942
    26  S    0.283940
    27  C    0.028165
    28  C    0.016685
    29  C   -0.009122
    30  C    0.050763
    31  C    0.050763
    32  C   -0.009122
    33  C    0.016685
    34  C    0.028166
    35  C   -0.203184
    36  C    0.012818
    37  C   -0.180066
    38  C   -0.180066
    39  C    0.012818
    40  C   -0.203185
         Mulliken charges condensed to fragments:
      1      0.000000
      2     -0.000000
 Electronic spatial extent (au):  <R**2>=           7116.3914
 Charge=             -0.0000 electrons
 Dipole moment (field-independent basis, Debye):
    X=              0.0000    Y=              0.0000    Z=             -0.0000  Tot=              0.0000
 Quadrupole moment (field-independent basis, Debye-Ang):
   XX=            -89.3047   YY=            -99.1523   ZZ=           -111.8191
   XY=             -2.4997   XZ=              2.3190   YZ=              4.4689
 Traceless Quadrupole moment (field-independent basis, Debye-Ang):
   XX=             10.7873   YY=              0.9397   ZZ=            -11.7270
   XY=             -2.4997   XZ=              2.3190   YZ=              4.4689
 Octapole moment (field-independent basis, Debye-Ang**2):
  XXX=           -199.2481  YYY=           -701.2384  ZZZ=             65.6278  XYY=            -85.5258
  XXY=           -214.2490  XXZ=             20.9205  XZZ=            -84.0675  YZZ=           -265.3559
  YYZ=             40.4685  XYZ=              9.2793
 Hexadecapole moment (field-independent basis, Debye-Ang**3):
 XXXX=          -4405.2035 YYYY=          -4559.9358 ZZZZ=           -312.2373 XXXY=           -152.9642
 XXXZ=            -44.8528 YYYX=           -218.3129 YYYZ=            100.6912 ZZZX=           -130.2418
 ZZZY=              5.7447 XXYY=          -1451.5211 XXZZ=           -944.5388 YYZZ=           -905.0297
 XXYZ=             58.1477 YYXZ=            -19.0639 ZZXY=            -46.6069
 N-N= 1.192162449365D+03 E-N=-5.527361838565D+03  KE= 1.331399877908D+03
 CPIOFr:  IOpCl= 0 IRwI=-1 IRwCP=  731 ICalc=  4 LCPTot=      762852 Len1MO=     1998050 IndFrg=    10753102
 CPIOFr:  IOpCl= 0 IRwI=-2 IRwCP=  731 ICalc=  0 LCPTot=      762852 Len1MO=     1998050 IndFrg=     2760902
 Counterpoise corrected energy =   -2669.806958073588
                   BSSE energy =       0.003429691713
              sum of fragments =   -2669.794632719003
           complexation energy =      -9.89 kcal/mole (raw)
           complexation energy =      -7.73 kcal/mole (corrected)
 1\1\GINC-CMDELL86\SP\RB3LYP\6-311G(d,p)\C28H16S4\OHNO\14-Jul-2021\0\\#
 b3lyp/6-311G** EmpiricalDispersion=GD3 counterpoise=2\\BTBT dimer b3ly
 p/6-311G**\\0,1\S,0,1.6203193263,0.9333401805,-0.9655543418\S,0,-1.620
 3215046,-0.9333388826,0.9655526073\C,0,0.7607010875,0.432046614,-3.596
 4890673\C,0,-0.1990145233,-0.0970811798,-4.456605144\C,0,-1.3358730484
 ,-0.7617409166,-3.9518894629\C,0,-1.5484008838,-0.8661903564,-2.581713
 2069\C,0,1.5483981093,0.866196593,2.581713372\C,0,1.3358706776,0.76174
 32744,3.9518892671\C,0,0.19901583,0.0970776341,4.4566055645\C,0,-0.760
 6973501,-0.4320550248,3.5964887592\C,0,-0.5418750743,-0.3467155574,2.2
 136722139\C,0,0.5874862401,0.3462927079,1.6917199634\C,0,0.5677107081,
 0.3035896045,0.2629304608\C,0,-0.5677107915,-0.3035871419,-0.262930279
 8\C,0,-0.5874867399,-0.3462921765,-1.6917195198\C,0,0.5418798052,0.346
 711325,-2.2136710574\H,0,1.6351619757,0.9441051055,-3.9892419249\H,0,-
 2.069015815,-1.1685664408,-4.6425298944\H,0,-2.4232632237,-1.382224776
 ,-2.1937042881\H,0,2.4232592385,1.3822352091,2.193705084\H,0,2.0690081
 682,1.1685767873,4.6425301772\H,0,0.0489377359,0.0282464127,5.53031334
 02\H,0,-1.6351576368,-0.9441151195,3.9892396112\H,0,-0.0489323111,-0.0
 282538749,-5.5303122329\S,0,-4.5453193263,4.9383401805,-0.9655543418\S
 ,0,-1.3046784954,3.0716611174,0.9655526073\C,0,-3.6857010875,4.4370466
 14,-3.5964890673\C,0,-2.7259854767,3.9079188202,-4.456605144\C,0,-1.58
 91269516,3.2432590834,-3.9518894629\C,0,-1.3765991162,3.1388096436,-2.
 5817132069\C,0,-4.4733981093,4.871196593,2.581713372\C,0,-4.2608706776
 ,4.7667432744,3.9518892671\C,0,-3.12401583,4.1020776341,4.4566055645\C
 ,0,-2.1643026499,3.5729449752,3.5964887592\C,0,-2.3831249257,3.6582844
 426,2.2136722139\C,0,-3.5124862401,4.3512927079,1.6917199634\C,0,-3.49
 27107081,4.3085896045,0.2629304608\C,0,-2.3572892085,3.7014128581,-0.2
 629302798\C,0,-2.3375132601,3.6587078235,-1.6917195198\C,0,-3.46687980
 52,4.351711325,-2.2136710574\H,0,-4.5601619757,4.9491051055,-3.9892419
 249\H,0,-0.855984185,2.8364335592,-4.6425298944\H,0,-0.5017367763,2.62
 2775224,-2.1937042881\H,0,-5.3482592385,5.3872352091,2.193705084\H,0,-
 4.9940081682,5.1735767873,4.6425301772\H,0,-2.9739377359,4.0332464127,
 5.5303133402\H,0,-1.2898423632,3.0608848805,3.9892396112\H,0,-2.876067
 6889,3.9767461251,-5.5303122329\\Version=ES64L-G16RevA.03\State=1-A\HF
 =-1334.8973153\RMSD=8.865e-09\Dipole=0.1145038,-0.3459358,-0.0249556\Q
 uadrupole=-2.5932534,-13.7137723,16.3070256,1.1619585,0.3501984,0.8491
 84\PG=C01 [X(C28H16S4)]\\@


            THE IRISH PIG
 'TWAS AN EVENING IN NOVEMBER,
 AS I VERY WELL REMEMBER
 I WAS STROLLING DOWN THE STREET IN DRUNKEN PRIDE,
 BUT MY KNEES WERE ALL A'FLUTTER
 SO I LANDED IN THE GUTTER,
 AND A PIG CAME UP AND LAY DOWN BY MY SIDE.

 YES, I LAY THERE IN THE GUTTER
 THINKING THOUGHTS I COULD NOT UTTER
 WHEN A COLLEEN PASSING BY DID SOFTLY SAY,
 'YE CAN TELL A MAN THAT BOOZES
 BY THE COMPANY THAT HE CHOOSES.' -
 AT THAT, THE PIG GOT UP AND WALKED AWAY!
     -- THE ECONOMIST, AUGUST 23, 1986
 Job cpu time:       0 days  2 hours 22 minutes 32.8 seconds.
 Elapsed time:       0 days  0 hours  3 minutes 36.7 seconds.
 File lengths (MBytes):  RWF=    395 Int=      0 D2E=      0 Chk=    113 Scr=      2
 Normal termination of Gaussian 16 at Wed Jul 14 11:14:45 2021.
