 Entering Gaussian System, Link 0=g16
 Initial command:
 /home/g03/g16/l1.exe "/home/scr/21098/Gau-170877.inp" -scrdir="/home/scr/21098/"
 Entering Link 1 = /home/g03/g16/l1.exe PID=    170878.
  
 Copyright (c) 1988,1990,1992,1993,1995,1998,2003,2009,2016,
            Gaussian, Inc.  All Rights Reserved.
  
 This is part of the Gaussian(R) 16 program.  It is based on
 the Gaussian(R) 09 system (copyright 2009, Gaussian, Inc.),
 the Gaussian(R) 03 system (copyright 2003, Gaussian, Inc.),
 the Gaussian(R) 98 system (copyright 1998, Gaussian, Inc.),
 the Gaussian(R) 94 system (copyright 1995, Gaussian, Inc.),
 the Gaussian 92(TM) system (copyright 1992, Gaussian, Inc.),
 the Gaussian 90(TM) system (copyright 1990, Gaussian, Inc.),
 the Gaussian 88(TM) system (copyright 1988, Gaussian, Inc.),
 the Gaussian 86(TM) system (copyright 1986, Carnegie Mellon
 University), and the Gaussian 82(TM) system (copyright 1983,
 Carnegie Mellon University). Gaussian is a federally registered
 trademark of Gaussian, Inc.
  
 This software contains proprietary and confidential information,
 including trade secrets, belonging to Gaussian, Inc.
  
 This software is provided under written license and may be
 used, copied, transmitted, or stored only in accord with that
 written license.
  
 The following legend is applicable only to US Government
 contracts under FAR:
  
                    RESTRICTED RIGHTS LEGEND
  
 Use, reproduction and disclosure by the US Government is
 subject to restrictions as set forth in subparagraphs (a)
 and (c) of the Commercial Computer Software - Restricted
 Rights clause in FAR 52.227-19.
  
 Gaussian, Inc.
 340 Quinnipiac St., Bldg. 40, Wallingford CT 06492
  
  
 ---------------------------------------------------------------
 Warning -- This program may not be used in any manner that
 competes with the business of Gaussian, Inc. or will provide
 assistance to any competitor of Gaussian, Inc.  The licensee
 of this program is prohibited from giving any competitor of
 Gaussian, Inc. access to this program.  By using this program,
 the user acknowledges that Gaussian, Inc. is engaged in the
 business of creating and licensing software in the field of
 computational chemistry and represents and warrants to the
 licensee that it is not a competitor of Gaussian, Inc. and that
 it will not use this program in any manner prohibited above.
 ---------------------------------------------------------------
  

 Cite this work as:
 Gaussian 16, Revision A.03,
 M. J. Frisch, G. W. Trucks, H. B. Schlegel, G. E. Scuseria, 
 M. A. Robb, J. R. Cheeseman, G. Scalmani, V. Barone, 
 G. A. Petersson, H. Nakatsuji, X. Li, M. Caricato, A. V. Marenich, 
 J. Bloino, B. G. Janesko, R. Gomperts, B. Mennucci, H. P. Hratchian, 
 J. V. Ortiz, A. F. Izmaylov, J. L. Sonnenberg, D. Williams-Young, 
 F. Ding, F. Lipparini, F. Egidi, J. Goings, B. Peng, A. Petrone, 
 T. Henderson, D. Ranasinghe, V. G. Zakrzewski, J. Gao, N. Rega, 
 G. Zheng, W. Liang, M. Hada, M. Ehara, K. Toyota, R. Fukuda, 
 J. Hasegawa, M. Ishida, T. Nakajima, Y. Honda, O. Kitao, H. Nakai, 
 T. Vreven, K. Throssell, J. A. Montgomery, Jr., J. E. Peralta, 
 F. Ogliaro, M. J. Bearpark, J. J. Heyd, E. N. Brothers, K. N. Kudin, 
 V. N. Staroverov, T. A. Keith, R. Kobayashi, J. Normand, 
 K. Raghavachari, A. P. Rendell, J. C. Burant, S. S. Iyengar, 
 J. Tomasi, M. Cossi, J. M. Millam, M. Klene, C. Adamo, R. Cammi, 
 J. W. Ochterski, R. L. Martin, K. Morokuma, O. Farkas, 
 J. B. Foresman, and D. J. Fox, Gaussian, Inc., Wallingford CT, 2016.
 
 ******************************************
 Gaussian 16:  ES64L-G16RevA.03 25-Dec-2016
                14-Jul-2021 
 ******************************************
 %NProcShared=40
 Will use up to   40 processors via shared memory.
 %Mem=15GB
 ------------------------------------------------------
 #b3lyp/6-311G** EmpiricalDispersion=GD3 counterpoise=2
 ------------------------------------------------------
 1/38=1,62=2,172=1/1;
 2/12=2,17=6,18=5,40=1/2;
 1/38=1,53=2,62=2,63=1/22;
 3/5=4,6=6,7=101,11=2,25=1,30=1,74=-5,124=31/1,2,3;
 4//1;
 5/5=2,38=5/2;
 6/7=2,8=2,9=2,10=2,28=1/1;
 1/53=2,62=2,63=1/22;
 3/5=7,6=11,7=101,11=2,25=1,30=1,74=-5,82=7,124=31/1,2,3;
 4//1;
 5/5=2,38=5/2;
 6/7=2,8=2,9=2,10=2,28=1/1;
 1/53=2,62=2,63=1/22(-4);
 99/5=1,9=1/99;
 -------------------------
 BTBT dimer b3lyp/6-311G**
 -------------------------
 Symbolic Z-matrix:
 Charge =  0 Multiplicity = 1 in supermolecule
 Charge =  0 Multiplicity = 1 in fragment      1.
 Charge =  0 Multiplicity = 1 in fragment      2.
 S                     1.62032   0.93334  -0.96555    
 S                    -1.62032  -0.93334   0.96555    
 C                     0.7607    0.43205  -3.59649    
 C                    -0.19901  -0.09708  -4.45661    
 C                    -1.33587  -0.76174  -3.95189    
 C                    -1.5484   -0.86619  -2.58171    
 C                     1.5484    0.8662    2.58171    
 C                     1.33587   0.76174   3.95189    
 C                     0.19902   0.09708   4.45661    
 C                    -0.7607   -0.43206   3.59649    
 C                    -0.54188  -0.34672   2.21367    
 C                     0.58749   0.34629   1.69172    
 C                     0.56771   0.30359   0.26293    
 C                    -0.56771  -0.30359  -0.26293    
 C                    -0.58749  -0.34629  -1.69172    
 C                     0.54188   0.34671  -2.21367    
 H                     1.63516   0.94411  -3.98924    
 H                    -2.06902  -1.16857  -4.64253    
 H                    -2.42326  -1.38222  -2.1937     
 H                     2.42326   1.38224   2.19371    
 H                     2.06901   1.16858   4.64253    
 H                     0.04894   0.02825   5.53031    
 H                    -1.63516  -0.94412   3.98924    
 H                    -0.04893  -0.02825  -5.53031    
 S                    -4.54532  -3.08166  -0.96555    
 S                    -1.30468  -4.94834   0.96555    
 C                    -3.6857   -3.58295  -3.59649    
 C                    -2.72599  -4.11208  -4.45661    
 C                    -1.58913  -4.77674  -3.95189    
 C                    -1.3766   -4.88119  -2.58171    
 C                    -4.4734   -3.1488    2.58171    
 C                    -4.26087  -3.25326   3.95189    
 C                    -3.12402  -3.91792   4.45661    
 C                    -2.1643   -4.44706   3.59649    
 C                    -2.38312  -4.36172   2.21367    
 C                    -3.51249  -3.66871   1.69172    
 C                    -3.49271  -3.71141   0.26293    
 C                    -2.35729  -4.31859  -0.26293    
 C                    -2.33751  -4.36129  -1.69172    
 C                    -3.46688  -3.66829  -2.21367    
 H                    -4.56016  -3.07089  -3.98924    
 H                    -0.85598  -5.18357  -4.64253    
 H                    -0.50174  -5.39722  -2.1937     
 H                    -5.34826  -2.63276   2.19371    
 H                    -4.99401  -2.84642   4.64253    
 H                    -2.97394  -3.98675   5.53031    
 H                    -1.28984  -4.95912   3.98924    
 H                    -2.87607  -4.04325  -5.53031    
 
                          Input orientation:                          
 ---------------------------------------------------------------------
 Center     Atomic      Atomic             Coordinates (Angstroms)
 Number     Number       Type             X           Y           Z
 ---------------------------------------------------------------------
      1         16           0        1.620319    0.933340   -0.965554
      2         16           0       -1.620322   -0.933339    0.965553
      3          6           0        0.760701    0.432047   -3.596489
      4          6           0       -0.199015   -0.097081   -4.456605
      5          6           0       -1.335873   -0.761741   -3.951889
      6          6           0       -1.548401   -0.866190   -2.581713
      7          6           0        1.548398    0.866197    2.581713
      8          6           0        1.335871    0.761743    3.951889
      9          6           0        0.199016    0.097078    4.456606
     10          6           0       -0.760697   -0.432055    3.596489
     11          6           0       -0.541875   -0.346716    2.213672
     12          6           0        0.587486    0.346293    1.691720
     13          6           0        0.567711    0.303590    0.262930
     14          6           0       -0.567711   -0.303587   -0.262930
     15          6           0       -0.587487   -0.346292   -1.691720
     16          6           0        0.541880    0.346711   -2.213671
     17          1           0        1.635162    0.944105   -3.989242
     18          1           0       -2.069016   -1.168566   -4.642530
     19          1           0       -2.423263   -1.382225   -2.193704
     20          1           0        2.423259    1.382235    2.193705
     21          1           0        2.069008    1.168577    4.642530
     22          1           0        0.048938    0.028246    5.530313
     23          1           0       -1.635158   -0.944115    3.989240
     24          1           0       -0.048932   -0.028254   -5.530312
     25         16           0       -4.545319   -3.081660   -0.965554
     26         16           0       -1.304678   -4.948339    0.965553
     27          6           0       -3.685701   -3.582953   -3.596489
     28          6           0       -2.725985   -4.112081   -4.456605
     29          6           0       -1.589127   -4.776741   -3.951889
     30          6           0       -1.376599   -4.881190   -2.581713
     31          6           0       -4.473398   -3.148803    2.581713
     32          6           0       -4.260871   -3.253257    3.951889
     33          6           0       -3.124016   -3.917922    4.456606
     34          6           0       -2.164303   -4.447055    3.596489
     35          6           0       -2.383125   -4.361716    2.213672
     36          6           0       -3.512486   -3.668707    1.691720
     37          6           0       -3.492711   -3.711410    0.262930
     38          6           0       -2.357289   -4.318587   -0.262930
     39          6           0       -2.337513   -4.361292   -1.691720
     40          6           0       -3.466880   -3.668289   -2.213671
     41          1           0       -4.560162   -3.070895   -3.989242
     42          1           0       -0.855984   -5.183566   -4.642530
     43          1           0       -0.501737   -5.397225   -2.193704
     44          1           0       -5.348259   -2.632765    2.193705
     45          1           0       -4.994008   -2.846423    4.642530
     46          1           0       -2.973938   -3.986754    5.530313
     47          1           0       -1.289842   -4.959115    3.989240
     48          1           0       -2.876068   -4.043254   -5.530312
 ---------------------------------------------------------------------
                    Distance matrix (angstroms):
                    1          2          3          4          5
     1  S    0.000000
     2  S    4.208969   0.000000
     3  C    2.812838   5.324075   0.000000
     4  C    4.069297   5.667383   1.393137   0.000000
     5  C    4.531067   4.928650   2.438660   1.410304   0.000000
     6  C    3.986360   3.548630   2.836748   2.434665   1.390489
     7  C    3.548632   3.986363   6.243327   7.315687   7.325105
     8  C    4.928652   4.531069   7.577436   8.590473   8.481093
     9  C    5.667385   4.069299   8.079606   8.924206   8.590474
    10  C    5.324076   2.812839   7.402719   8.079605   7.577436
    11  C    4.052297   1.750707   6.005094   6.683747   6.230315
    12  C    2.910752   2.653147   5.291740   6.214263   6.064435
    13  C    1.736014   2.609819   3.866376   4.798169   4.745868
    14  C    2.609817   1.736015   3.663120   4.214913   3.795840
    15  C    2.653146   2.910750   2.459994   2.803143   2.416826
    16  C    1.750703   4.052296   1.402623   2.403462   2.788553
    17  H    3.023743   6.218759   1.086803   2.160255   3.426128
    18  H    5.616881   5.630919   3.415181   2.163228   1.086273
    19  H    4.818792   3.290459   3.923903   3.423390   2.158387
    20  H    3.290462   4.818795   6.098632   7.300091   7.516385
    21  H    5.630921   5.616882   8.374699   9.462562   9.443696
    22  H    6.744237   4.954605   9.163416   9.990782   9.615298
    23  H    6.218758   3.023743   8.073242   8.608848   7.948859
    24  H    4.954602   6.744235   2.146405   1.086328   2.164633
    25  S    7.357671   4.110969   6.886349   6.323410   4.959916
    26  S    6.846819   4.027388   7.350277   7.359143   6.458313
    27  C    7.447992   5.665552   5.990886   5.004806   3.688799
    28  C    7.518915   6.381747   5.791881   4.744029   3.662230
    29  C    7.198873   6.241310   5.725336   4.907786   4.022979
    30  C    6.738120   5.313005   5.816211   5.271587   4.341533
    31  C    8.147417   3.957310   8.853726   8.781873   7.630865
    32  C    8.734829   4.612236   9.786504   9.857124   8.788230
    33  C    8.685809   4.832834   9.943118  10.129155   9.157605
    34  C    8.005264   4.423114   9.170617   9.361461   8.440726
    35  C    7.360208   3.727390   8.162216   8.212798   7.216003
    36  C    7.388210   3.404386   7.939866   7.844585   6.711067
    37  C    7.016121   3.423040   7.082010   6.796015   5.578280
    38  C    6.625541   3.675894   6.588095   6.329784   5.225214
    39  C    6.650179   4.396171   6.016908   5.513734   4.366740
    40  C    6.972258   4.582269   6.049576   5.335093   4.001326
    41  H    7.960838   6.145063   6.382510   5.299208   3.966059
    42  H    7.554388   7.078081   5.936580   5.132106   4.501091
    43  H    6.788779   5.581972   6.127149   5.770952   5.027396
    44  H    8.441511   4.277140   8.957612   8.784705   7.574187
    45  H    9.459733   5.344326  10.571021  10.646366   9.570366
    46  H    9.354722   5.656205  10.806102  11.071056  10.148701
    47  H    8.230435   5.045669   9.529566   9.806201   8.982294
    48  H    8.113014   7.310590   6.082275   4.887918   3.953725
                    6          7          8          9         10
     6  C    0.000000
     7  C    6.265166   0.000000
     8  C    7.325104   1.390489   0.000000
     9  C    7.315687   2.434666   1.410304   0.000000
    10  C    6.243327   2.836750   2.438660   1.393137   0.000000
    11  C    4.927339   2.444556   2.788550   2.403460   1.402622
    12  C    4.928931   1.409163   2.416825   2.803143   2.459994
    13  C    3.733405   2.579734   3.795839   4.214913   3.663121
    14  C    2.579734   3.733404   4.745867   4.798168   3.866376
    15  C    1.409162   4.928931   6.064435   6.214263   5.291739
    16  C    2.444557   4.927338   6.230314   6.683746   6.005093
    17  H    3.923440   6.571990   7.948861   8.608851   8.073244
    18  H    2.146960   8.331605   9.443696   9.462562   8.374698
    19  H    1.087302   6.605612   7.516383   7.300089   6.098630
    20  H    6.605613   1.087303   2.158387   3.423391   3.923905
    21  H    8.331604   2.146959   1.086273   2.163227   3.415181
    22  H    8.316038   3.412445   2.164633   1.086328   2.146407
    23  H    6.571988   3.923441   3.426129   2.160256   1.086802
    24  H    3.412445   8.316037   9.615296   9.990781   9.163414
    25  S    4.062240   8.080970   8.575628   7.874827   6.492766
    26  S    5.413542   6.675391   6.963889   6.317023   5.254956
    27  C    3.602586   9.239097  10.053387   9.668815   8.379901
    28  C    3.929088   9.622449  10.533547  10.281925   9.069579
    29  C    4.143845   9.185574  10.084649   9.882022   8.748749
    30  C    4.018674   8.261298   9.049207   8.763769   7.638345
    31  C    6.358216   7.237559   7.135640   5.990193   4.711119
    32  C    7.466160   7.252233   6.887942   5.600899   4.509623
    33  C    7.831575   6.945104   6.484180   5.211791   4.298412
    34  C    7.167434   6.560835   6.285627   5.193671   4.253273
    35  C    5.992594   6.551595   6.565223   5.619523   4.470647
    36  C    5.474848   6.853466   6.945777   5.966655   4.655793
    37  C    4.468514   7.193331   7.545377   6.761682   5.415781
    38  C    4.236756   7.087198   7.563986   6.950310   5.705204
    39  C    3.691954   7.790326   8.461062   8.007056   6.774245
    40  C    3.415812   8.289166   8.983637   8.491723   7.180152
    41  H    3.989056   9.797584  10.607256  10.198930   8.884971
    42  H    4.833854   9.724730  10.677780  10.573197   9.511434
    43  H    4.666512   8.138680   8.892582   8.654769   7.631927
    44  H    6.353293   7.743201   7.700097   6.583693   5.277940
    45  H    8.245194   7.799589   7.318690   5.972124   4.984405
    46  H    8.807670   7.259262   6.604097   5.281871   4.612374
    47  H    7.745728   6.631063   6.294759   5.291523   4.574770
    48  H    4.533284  10.463439  11.434184  11.239974  10.040620
                   11         12         13         14         15
    11  C    0.000000
    12  C    1.424132   0.000000
    13  C    2.336551   1.429564   0.000000
    14  C    2.477113   2.361669   1.390818   0.000000
    15  C    3.905658   3.647999   2.361670   1.429564   0.000000
    16  C    4.610503   3.905657   2.477112   2.336551   1.424133
    17  H    6.699392   5.807610   4.430653   4.504973   3.447304
    18  H    7.072136   7.033813   5.760478   4.709883   3.402697
    19  H    4.902741   5.210461   4.221724   2.886940   2.166846
    20  H    3.432447   2.166848   2.886941   4.221724   5.210463
    21  H    3.874555   3.402696   4.709882   5.760477   7.033812
    22  H    3.389656   3.889214   5.300025   5.835413   7.259688
    23  H    2.169053   3.447303   4.504972   4.430651   5.807607
    24  H    7.766190   7.259688   5.835412   5.300024   3.889214
    25  S    5.797842   6.719945   6.253972   4.902320   4.865593
    26  S    4.828520   5.669280   5.619811   4.860659   5.362303
    27  C    7.356280   7.852659   6.934829   5.620384   4.868578
    28  C    7.964981   8.286018   7.254006   6.062152   5.137990
    29  C    7.663942   7.926755   6.944524   5.887344   5.073512
    30  C    6.652364   7.031816   6.225294   5.194758   4.688293
    31  C    4.841903   6.214526   6.535178   5.607285   6.420016
    32  C    5.029941   6.447611   7.040935   6.332826   7.334474
    33  C    4.944868   6.293121   7.002637   6.470868   7.549333
    34  C    4.621389   5.846081   6.414447   5.883243   6.875155
    35  C    4.417061   5.591271   5.854733   5.088978   5.882179
    36  C    4.486936   5.738467   5.870996   4.880204   5.571510
    37  C    4.882007   5.929115   5.710276   4.521660   4.856439
    38  C    5.020463   5.852646   5.495150   4.395773   4.577419
    39  C    5.881601   6.493431   5.832847   4.651732   4.379819
    40  C    6.260181   6.914248   6.179587   4.850957   4.427076
    41  H    7.876797   8.393377   7.467476   6.122341   5.337061
    42  H    8.396505   8.531452   7.496621   6.563398   5.672618
    43  H    6.703299   7.019325   6.299052   5.447695   5.076540
    44  H    5.322382   6.660319   6.881044   5.857796   6.556633
    45  H    5.654147   7.074871   7.748302   7.079666   8.111153
    46  H    5.492259   6.796604   7.661308   7.274429   8.432429
    47  H    4.998632   6.078677   6.710584   6.346366   7.351512
    48  H    8.892814   9.133569   8.019746   6.859951   5.799993
                   16         17         18         19         20
    16  C    0.000000
    17  H    2.169054   0.000000
    18  H    3.874558   4.314058   0.000000
    19  H    3.432447   5.010647   2.483523   0.000000
    20  H    4.902740   6.248351   8.568619   7.097914   0.000000
    21  H    7.072134   8.645583  10.430619   8.568617   2.483523
    22  H    7.766190   9.694165  10.459676   8.231747   4.313194
    23  H    6.699390   8.827034   8.645580   6.248347   5.010648
    24  H    3.389656   2.481240   2.483789   4.313193   8.231747
    25  S    6.260281   7.971689   4.828266   2.983212   8.858237
    26  S    6.446301   8.240968   6.805989   4.893803   7.448627
    27  C    5.935225   6.997149   3.088226   2.899097   9.772351
    28  C    5.965780   6.693508   3.021664   3.558718  10.046336
    29  C    5.814839   6.567002   3.704889   3.912766   9.581261
    30  C    5.580947   6.707154   4.302323   3.672712   8.744944
    31  C    7.769643   9.861230   7.867152   5.488940   8.261038
    32  C    8.604668  10.744422   9.111213   6.681757   8.322054
    33  C    8.724591  10.845341   9.563799   7.151744   7.999041
    34  C    8.003848  10.052057   8.867863   6.556415   7.549447
    35  C    7.094104   9.098050   7.569833   5.320145   7.489639
    36  C    6.914734   8.947047   6.961109   4.637988   7.810063
    37  C    6.235369   8.127107   5.705831   3.550194   8.041879
    38  C    5.828858   7.584260   5.402465   3.514892   7.835054
    39  C    5.543341   7.014841   4.355786   3.022281   8.411277
    40  C    5.673657   7.103355   3.755262   2.513090   8.923368
    41  H    6.392458   7.382565   3.201788   3.262192  10.335733
    42  H    6.199786   6.646875   4.194243   4.785740  10.029820
    43  H    5.838008   6.928402   5.131731   4.451122   8.588716
    44  H    7.937001   9.989545   7.722138   5.419300   8.747384
    45  H    9.372815  11.524821   9.878417   7.448940   8.882238
    46  H    9.545113  11.669580  10.594706   8.169900   8.311963
    47  H    8.365590  10.346972   9.459536   7.232398   7.564641
    48  H    6.477211   6.899264   3.115015   4.291743  10.824936
                   21         22         23         24         25
    21  H    0.000000
    22  H    2.483787   0.000000
    23  H    4.314058   2.481244   0.000000
    24  H   10.459675  11.061203   9.694162   0.000000
    25  S    9.657352   8.542541   6.130915   7.097732   0.000000
    26  S    7.894212   6.887359   5.028490   8.245022   4.208969
    27  C   11.116436  10.501753   8.289239   5.440740   2.812838
    28  C   11.561642  11.161588   9.086155   4.999711   4.069297
    29  C   11.072163  10.755618   8.817747   5.235623   4.531067
    30  C   10.033025   9.588519   7.664518   5.831632   3.986360
    31  C    8.104926   6.264137   3.859714   9.752881   3.548632
    32  C    7.752223   5.642175   3.496841  10.865230   4.928652
    33  C    7.271488   5.176170   3.358372  11.150076   5.667385
    34  C    7.109884   5.354104   3.564384  10.358527   5.324076
    35  C    7.503664   6.015547   3.923275   9.175873   4.052297
    36  C    7.953595   6.409837   4.028196   8.798117   2.910752
    37  C    8.598133   7.367064   4.999381   7.680294   1.736014
    38  C    8.588633   7.631944   5.476266   7.175011   2.609817
    39  C    9.493134   8.781854   6.666611   6.224758   2.653146
    40  C   10.052304   9.273329   7.018007   5.994358   1.750703
    41  H   11.680176  11.021362   8.759852   5.655418   3.023743
    42  H   11.624012  11.465976   9.648187   5.293084   5.616881
    43  H    9.821028   9.455127   7.703481   6.337494   4.818792
    44  H    8.686933   6.880674   4.456748   9.722489   3.290462
    45  H    8.124434   5.872239   3.915028  11.656868   5.630921
    46  H    7.266147   5.025734   3.663999  12.106313   6.744237
    47  H    7.018353   5.388972   4.029822  10.792364   6.218758
    48  H   12.454063  12.143731  10.087933   4.910491   4.954602
                   26         27         28         29         30
    26  S    0.000000
    27  C    5.324075   0.000000
    28  C    5.667383   1.393137   0.000000
    29  C    4.928650   2.438660   1.410304   0.000000
    30  C    3.548630   2.836748   2.434665   1.390489   0.000000
    31  C    3.986363   6.243327   7.315687   7.325105   6.265166
    32  C    4.531069   7.577436   8.590473   8.481093   7.325104
    33  C    4.069299   8.079606   8.924206   8.590474   7.315687
    34  C    2.812839   7.402719   8.079605   7.577436   6.243327
    35  C    1.750707   6.005094   6.683747   6.230315   4.927339
    36  C    2.653147   5.291740   6.214263   6.064435   4.928931
    37  C    2.609819   3.866376   4.798169   4.745868   3.733405
    38  C    1.736015   3.663120   4.214913   3.795840   2.579734
    39  C    2.910750   2.459994   2.803143   2.416826   1.409162
    40  C    4.052296   1.402623   2.403462   2.788553   2.444557
    41  H    6.218759   1.086803   2.160255   3.426128   3.923440
    42  H    5.630919   3.415181   2.163228   1.086273   2.146960
    43  H    3.290459   3.923903   3.423390   2.158387   1.087302
    44  H    4.818795   6.098632   7.300091   7.516385   6.605613
    45  H    5.616882   8.374699   9.462562   9.443696   8.331604
    46  H    4.954605   9.163416   9.990782   9.615298   8.316038
    47  H    3.023743   8.073242   8.608848   7.948859   6.571988
    48  H    6.744235   2.146405   1.086328   2.164633   3.412445
                   31         32         33         34         35
    31  C    0.000000
    32  C    1.390489   0.000000
    33  C    2.434666   1.410304   0.000000
    34  C    2.836750   2.438660   1.393137   0.000000
    35  C    2.444556   2.788550   2.403460   1.402622   0.000000
    36  C    1.409163   2.416825   2.803143   2.459994   1.424132
    37  C    2.579734   3.795839   4.214913   3.663121   2.336551
    38  C    3.733404   4.745867   4.798168   3.866376   2.477113
    39  C    4.928931   6.064435   6.214263   5.291739   3.905658
    40  C    4.927338   6.230314   6.683746   6.005093   4.610503
    41  H    6.571990   7.948861   8.608851   8.073244   6.699392
    42  H    8.331605   9.443696   9.462562   8.374698   7.072136
    43  H    6.605612   7.516383   7.300089   6.098630   4.902741
    44  H    1.087303   2.158387   3.423391   3.923905   3.432447
    45  H    2.146959   1.086273   2.163227   3.415181   3.874555
    46  H    3.412445   2.164633   1.086328   2.146407   3.389656
    47  H    3.923441   3.426129   2.160256   1.086802   2.169053
    48  H    8.316037   9.615296   9.990781   9.163414   7.766190
                   36         37         38         39         40
    36  C    0.000000
    37  C    1.429564   0.000000
    38  C    2.361669   1.390818   0.000000
    39  C    3.647999   2.361670   1.429564   0.000000
    40  C    3.905657   2.477112   2.336551   1.424133   0.000000
    41  H    5.807610   4.430653   4.504973   3.447304   2.169054
    42  H    7.033813   5.760478   4.709883   3.402697   3.874558
    43  H    5.210461   4.221724   2.886940   2.166846   3.432447
    44  H    2.166848   2.886941   4.221724   5.210463   4.902740
    45  H    3.402696   4.709882   5.760477   7.033812   7.072134
    46  H    3.889214   5.300025   5.835413   7.259688   7.766190
    47  H    3.447303   4.504972   4.430651   5.807607   6.699390
    48  H    7.259688   5.835412   5.300024   3.889214   3.389656
                   41         42         43         44         45
    41  H    0.000000
    42  H    4.314058   0.000000
    43  H    5.010647   2.483523   0.000000
    44  H    6.248351   8.568619   7.097914   0.000000
    45  H    8.645583  10.430619   8.568617   2.483523   0.000000
    46  H    9.694165  10.459676   8.231747   4.313194   2.483787
    47  H    8.827034   8.645580   6.248347   5.010648   4.314058
    48  H    2.481240   2.483789   4.313193   8.231747  10.459675
                   46         47         48
    46  H    0.000000
    47  H    2.481244   0.000000
    48  H   11.061203   9.694162   0.000000
 Stoichiometry    C28H16S4
 Framework group  C1[X(C28H16S4)]
 Deg. of freedom   138
 Full point group                 C1      NOp   1
 Largest Abelian subgroup         C1      NOp   1
 Largest concise Abelian subgroup C1      NOp   1
                         Standard orientation:                         
 ---------------------------------------------------------------------
 Center     Atomic      Atomic             Coordinates (Angstroms)
 Number     Number       Type             X           Y           Z
 ---------------------------------------------------------------------
      1         16           0       -0.376380    4.333461    0.405054
      2         16           0       -1.156378    0.375472   -0.795508
      3          6           0        2.408049    4.246150    0.015965
      4          6           0        3.533304    3.531554   -0.388983
      5          6           0        3.426419    2.189146   -0.807880
      6          6           0        2.187950    1.559904   -0.868783
      7          6           0       -3.720711    3.149032    0.478325
      8          6           0       -4.959178    2.519787    0.417425
      9          6           0       -5.066063    1.177377   -0.001465
     10          6           0       -3.940806    0.462779   -0.406408
     11          6           0       -2.686719    1.086124   -0.328597
     12          6           0       -2.569108    2.449502    0.065761
     13          6           0       -1.195810    2.846062    0.044601
     14          6           0       -0.336950    1.862872   -0.435054
     15          6           0        1.036348    2.259431   -0.456213
     16          6           0        1.153959    3.622809   -0.061848
     17          1           0        2.494372    5.280692    0.337543
     18          1           0        4.318615    1.651709   -1.116322
     19          1           0        2.107200    0.523717   -1.188192
     20          1           0       -3.639962    4.185221    0.797731
     21          1           0       -5.851376    3.057226    0.725858
     22          1           0       -6.042809    0.703912   -0.045157
     23          1           0       -4.027128   -0.571763   -0.727985
     24          1           0        4.510050    4.005018   -0.345286
     25         16           0        1.749562   -2.399358   -1.664933
     26         16           0       -0.216802   -2.309572    2.055385
     27          6           0        4.219293   -1.412949   -0.748701
     28          6           0        4.993206   -0.928796    0.303670
     29          6           0        4.470128   -0.851192    1.611082
     30          6           0        3.153855   -1.214974    1.872900
     31          6           0       -1.621099   -3.493953   -1.482451
     32          6           0       -2.937370   -3.857737   -1.220630
     33          6           0       -3.460447   -3.780140    0.086783
     34          6           0       -2.686531   -3.295992    1.139155
     35          6           0       -1.352335   -2.945971    0.884686
     36          6           0       -0.821276   -2.993240   -0.435880
     37          6           0        0.544782   -2.571979   -0.427010
     38          6           0        0.987976   -2.136953    0.817460
     39          6           0        2.354034   -1.715692    0.826331
     40          6           0        2.885095   -1.762968   -0.494235
     41          1           0        4.625748   -1.470667   -1.754983
     42          1           0        5.093928   -0.472886    2.415909
     43          1           0        2.752827   -1.158400    2.881960
     44          1           0       -1.220072   -3.550523   -2.491512
     45          1           0       -3.561174   -4.236035   -2.025459
     46          1           0       -4.492135   -4.066147    0.270983
     47          1           0       -3.092984   -3.238275    2.145437
     48          1           0        6.024895   -0.642795    0.119469
 ---------------------------------------------------------------------
 Rotational constants (GHZ):           0.1330582           0.1273299           0.0745026
 Counterpoise: doing full-system calculation.
 Standard basis: 6-311G(d,p) (5D, 7F)
 There are   736 symmetry adapted cartesian basis functions of A   symmetry.
 There are   704 symmetry adapted basis functions of A   symmetry.
   704 basis functions,  1208 primitive gaussians,   736 cartesian basis functions
   124 alpha electrons      124 beta electrons
       nuclear repulsion energy      3751.0685693584 Hartrees.
 NAtoms=   48 NActive=   48 NUniq=   48 SFac= 1.00D+00 NAtFMM=   60 NAOKFM=F Big=F
 Integral buffers will be    131072 words long.
 Raffenetti 2 integral format.
 Two-electron integral symmetry is turned on.
 Nuclear repulsion after empirical dispersion term =     3751.0071563972 Hartrees.
 One-electron integrals computed using PRISM.
 NBasis=   704 RedAO= T EigKep=  1.61D-04  NBF=   704
 NBsUse=   704 1.00D-06 EigRej= -1.00D+00 NBFU=   704
 ExpMin= 7.71D-02 ExpMax= 9.34D+04 ExpMxC= 3.17D+03 IAcc=3 IRadAn=         5 AccDes= 0.00D+00
 Harris functional with IExCor=  402 and IRadAn=       5 diagonalized for initial guess.
 HarFok:  IExCor=  402 AccDes= 0.00D+00 IRadAn=         5 IDoV= 1 UseB2=F ITyADJ=14
 ICtDFT=  3500011 ScaDFX=  1.000000  1.000000  1.000000  1.000000
 FoFCou: FMM=F IPFlag=           0 FMFlag=      100000 FMFlg1=           0
         NFxFlg=           0 DoJE=T BraDBF=F KetDBF=T FulRan=T
         wScrn=  0.000000 ICntrl=       500 IOpCl=  0 I1Cent=   200000004 NGrid=           0
         NMat0=    1 NMatS0=      1 NMatT0=    0 NMatD0=    1 NMtDS0=    0 NMtDT0=    0
 Petite list used in FoFCou.
 Requested convergence on RMS density matrix=1.00D-08 within 128 cycles.
 Requested convergence on MAX density matrix=1.00D-06.
 Requested convergence on             energy=1.00D-06.
 No special actions if energy rises.
 Integral accuracy reduced to 1.0D-05 until final iterations.
 Initial convergence to 1.0D-05 achieved.  Increase integral accuracy.
 SCF Done:  E(RB3LYP) =  -2669.81039948     A.U. after   15 cycles
            NFock= 15  Conv=0.75D-08     -V/T= 2.0026

 **********************************************************************

            Population analysis using the SCF density.

 **********************************************************************

 Orbital symmetries:
       Occupied  (A) (A) (A) (A) (A) (A) (A) (A) (A) (A) (A) (A)
                 (A) (A) (A) (A) (A) (A) (A) (A) (A) (A) (A) (A)
                 (A) (A) (A) (A) (A) (A) (A) (A) (A) (A) (A) (A)
                 (A) (A) (A) (A) (A) (A) (A) (A) (A) (A) (A) (A)
                 (A) (A) (A) (A) (A) (A) (A) (A) (A) (A) (A) (A)
                 (A) (A) (A) (A) (A) (A) (A) (A) (A) (A) (A) (A)
                 (A) (A) (A) (A) (A) (A) (A) (A) (A) (A) (A) (A)
                 (A) (A) (A) (A) (A) (A) (A) (A) (A) (A) (A) (A)
                 (A) (A) (A) (A) (A) (A) (A) (A) (A) (A) (A) (A)
                 (A) (A) (A) (A) (A) (A) (A) (A) (A) (A) (A) (A)
                 (A) (A) (A) (A)
       Virtual   (A) (A) (A) (A) (A) (A) (A) (A) (A) (A) (A) (A)
                 (A) (A) (A) (A) (A) (A) (A) (A) (A) (A) (A) (A)
                 (A) (A) (A) (A) (A) (A) (A) (A) (A) (A) (A) (A)
                 (A) (A) (A) (A) (A) (A) (A) (A) (A) (A) (A) (A)
                 (A) (A) (A) (A) (A) (A) (A) (A) (A) (A) (A) (A)
                 (A) (A) (A) (A) (A) (A) (A) (A) (A) (A) (A) (A)
                 (A) (A) (A) (A) (A) (A) (A) (A) (A) (A) (A) (A)
                 (A) (A) (A) (A) (A) (A) (A) (A) (A) (A) (A) (A)
                 (A) (A) (A) (A) (A) (A) (A) (A) (A) (A) (A) (A)
                 (A) (A) (A) (A) (A) (A) (A) (A) (A) (A) (A) (A)
                 (A) (A) (A) (A) (A) (A) (A) (A) (A) (A) (A) (A)
                 (A) (A) (A) (A) (A) (A) (A) (A) (A) (A) (A) (A)
                 (A) (A) (A) (A) (A) (A) (A) (A) (A) (A) (A) (A)
                 (A) (A) (A) (A) (A) (A) (A) (A) (A) (A) (A) (A)
                 (A) (A) (A) (A) (A) (A) (A) (A) (A) (A) (A) (A)
                 (A) (A) (A) (A) (A) (A) (A) (A) (A) (A) (A) (A)
                 (A) (A) (A) (A) (A) (A) (A) (A) (A) (A) (A) (A)
                 (A) (A) (A) (A) (A) (A) (A) (A) (A) (A) (A) (A)
                 (A) (A) (A) (A) (A) (A) (A) (A) (A) (A) (A) (A)
                 (A) (A) (A) (A) (A) (A) (A) (A) (A) (A) (A) (A)
                 (A) (A) (A) (A) (A) (A) (A) (A) (A) (A) (A) (A)
                 (A) (A) (A) (A) (A) (A) (A) (A) (A) (A) (A) (A)
                 (A) (A) (A) (A) (A) (A) (A) (A) (A) (A) (A) (A)
                 (A) (A) (A) (A) (A) (A) (A) (A) (A) (A) (A) (A)
                 (A) (A) (A) (A) (A) (A) (A) (A) (A) (A) (A) (A)
                 (A) (A) (A) (A) (A) (A) (A) (A) (A) (A) (A) (A)
                 (A) (A) (A) (A) (A) (A) (A) (A) (A) (A) (A) (A)
                 (A) (A) (A) (A) (A) (A) (A) (A) (A) (A) (A) (A)
                 (A) (A) (A) (A) (A) (A) (A) (A) (A) (A) (A) (A)
                 (A) (A) (A) (A) (A) (A) (A) (A) (A) (A) (A) (A)
                 (A) (A) (A) (A) (A) (A) (A) (A) (A) (A) (A) (A)
                 (A) (A) (A) (A) (A) (A) (A) (A) (A) (A) (A) (A)
                 (A) (A) (A) (A) (A) (A) (A) (A) (A) (A) (A) (A)
                 (A) (A) (A) (A) (A) (A) (A) (A) (A) (A) (A) (A)
                 (A) (A) (A) (A) (A) (A) (A) (A) (A) (A) (A) (A)
                 (A) (A) (A) (A) (A) (A) (A) (A) (A) (A) (A) (A)
                 (A) (A) (A) (A) (A) (A) (A) (A) (A) (A) (A) (A)
                 (A) (A) (A) (A) (A) (A) (A) (A) (A) (A) (A) (A)
                 (A) (A) (A) (A) (A) (A) (A) (A) (A) (A) (A) (A)
                 (A) (A) (A) (A) (A) (A) (A) (A) (A) (A) (A) (A)
                 (A) (A) (A) (A) (A) (A) (A) (A) (A) (A) (A) (A)
                 (A) (A) (A) (A) (A) (A) (A) (A) (A) (A) (A) (A)
                 (A) (A) (A) (A) (A) (A) (A) (A) (A) (A) (A) (A)
                 (A) (A) (A) (A) (A) (A) (A) (A) (A) (A) (A) (A)
                 (A) (A) (A) (A) (A) (A) (A) (A) (A) (A) (A) (A)
                 (A) (A) (A) (A) (A) (A) (A) (A) (A) (A) (A) (A)
                 (A) (A) (A) (A) (A) (A) (A) (A) (A) (A) (A) (A)
                 (A) (A) (A) (A) (A) (A) (A) (A) (A) (A) (A) (A)
                 (A) (A) (A) (A)
 The electronic state is 1-A.
 Alpha  occ. eigenvalues --  -88.88540 -88.88308 -88.87422 -88.87141 -10.22133
 Alpha  occ. eigenvalues --  -10.22058 -10.21609 -10.21549 -10.21060 -10.20987
 Alpha  occ. eigenvalues --  -10.20526 -10.20462 -10.20383 -10.20335 -10.19407
 Alpha  occ. eigenvalues --  -10.19334 -10.19326 -10.19241 -10.19069 -10.19017
 Alpha  occ. eigenvalues --  -10.18795 -10.18778 -10.18638 -10.18575 -10.18340
 Alpha  occ. eigenvalues --  -10.18263 -10.18094 -10.17775 -10.17740 -10.17727
 Alpha  occ. eigenvalues --  -10.17670 -10.17444  -7.97191  -7.96953  -7.96079
 Alpha  occ. eigenvalues --   -7.95799  -5.93518  -5.93283  -5.93159  -5.92922
 Alpha  occ. eigenvalues --   -5.92690  -5.92450  -5.92408  -5.92127  -5.92050
 Alpha  occ. eigenvalues --   -5.91765  -5.91578  -5.91296  -0.92634  -0.91533
 Alpha  occ. eigenvalues --   -0.88562  -0.87466  -0.84477  -0.83411  -0.82405
 Alpha  occ. eigenvalues --   -0.81332  -0.78091  -0.77685  -0.77033  -0.76604
 Alpha  occ. eigenvalues --   -0.74269  -0.73204  -0.72456  -0.71404  -0.70321
 Alpha  occ. eigenvalues --   -0.69257  -0.64931  -0.63886  -0.61842  -0.60797
 Alpha  occ. eigenvalues --   -0.59683  -0.58777  -0.58638  -0.57738  -0.57289
 Alpha  occ. eigenvalues --   -0.56241  -0.51737  -0.50733  -0.50524  -0.49492
 Alpha  occ. eigenvalues --   -0.49400  -0.48373  -0.47806  -0.46930  -0.45955
 Alpha  occ. eigenvalues --   -0.45797  -0.45062  -0.44803  -0.44293  -0.43846
 Alpha  occ. eigenvalues --   -0.43667  -0.43145  -0.42599  -0.42324  -0.41145
 Alpha  occ. eigenvalues --   -0.40788  -0.40113  -0.39861  -0.39437  -0.38406
 Alpha  occ. eigenvalues --   -0.37598  -0.36948  -0.36590  -0.36495  -0.35912
 Alpha  occ. eigenvalues --   -0.35497  -0.35053  -0.34939  -0.34814  -0.34054
 Alpha  occ. eigenvalues --   -0.33860  -0.33714  -0.32801  -0.31852  -0.29162
 Alpha  occ. eigenvalues --   -0.28492  -0.28096  -0.27485  -0.25308  -0.24215
 Alpha  occ. eigenvalues --   -0.23242  -0.22167  -0.21435  -0.20375
 Alpha virt. eigenvalues --   -0.06031  -0.04912  -0.02753  -0.02023  -0.01617
 Alpha virt. eigenvalues --   -0.00903  -0.00781  -0.00011   0.00478   0.01213
 Alpha virt. eigenvalues --    0.01521   0.02647   0.03674   0.03823   0.04262
 Alpha virt. eigenvalues --    0.04751   0.04908   0.05522   0.06461   0.06989
 Alpha virt. eigenvalues --    0.07186   0.07545   0.07854   0.08868   0.09210
 Alpha virt. eigenvalues --    0.10416   0.10981   0.11914   0.12504   0.12631
 Alpha virt. eigenvalues --    0.12721   0.13065   0.13167   0.13407   0.13895
 Alpha virt. eigenvalues --    0.14150   0.14567   0.14968   0.15669   0.16008
 Alpha virt. eigenvalues --    0.16707   0.17257   0.18041   0.18818   0.19954
 Alpha virt. eigenvalues --    0.20911   0.21226   0.21724   0.22856   0.23006
 Alpha virt. eigenvalues --    0.23564   0.24244   0.24394   0.25173   0.26800
 Alpha virt. eigenvalues --    0.27293   0.27374   0.27796   0.28096   0.28212
 Alpha virt. eigenvalues --    0.28548   0.28982   0.29160   0.29378   0.29977
 Alpha virt. eigenvalues --    0.31817   0.32349   0.33663   0.33886   0.34864
 Alpha virt. eigenvalues --    0.35078   0.35305   0.36165   0.36631   0.36904
 Alpha virt. eigenvalues --    0.37935   0.37987   0.38198   0.38599   0.38997
 Alpha virt. eigenvalues --    0.39533   0.39930   0.40215   0.40598   0.40821
 Alpha virt. eigenvalues --    0.41094   0.41248   0.41579   0.41819   0.42107
 Alpha virt. eigenvalues --    0.42299   0.42829   0.43121   0.43302   0.43595
 Alpha virt. eigenvalues --    0.43753   0.44103   0.44324   0.44620   0.45051
 Alpha virt. eigenvalues --    0.45713   0.46004   0.46222   0.46327   0.46484
 Alpha virt. eigenvalues --    0.47269   0.48404   0.48689   0.48840   0.49313
 Alpha virt. eigenvalues --    0.49564   0.50622   0.50789   0.50993   0.51507
 Alpha virt. eigenvalues --    0.52398   0.52873   0.53741   0.53843   0.54216
 Alpha virt. eigenvalues --    0.55259   0.55527   0.56050   0.56721   0.57145
 Alpha virt. eigenvalues --    0.57894   0.58088   0.58158   0.58729   0.58971
 Alpha virt. eigenvalues --    0.59034   0.59468   0.59802   0.59851   0.60075
 Alpha virt. eigenvalues --    0.60818   0.60851   0.61277   0.61394   0.61843
 Alpha virt. eigenvalues --    0.62459   0.62628   0.63114   0.63530   0.64147
 Alpha virt. eigenvalues --    0.64592   0.65494   0.66379   0.67155   0.67599
 Alpha virt. eigenvalues --    0.68469   0.69430   0.69664   0.70111   0.70693
 Alpha virt. eigenvalues --    0.71130   0.71573   0.71793   0.72202   0.72430
 Alpha virt. eigenvalues --    0.72952   0.73289   0.73503   0.74301   0.74811
 Alpha virt. eigenvalues --    0.75196   0.75491   0.76032   0.76468   0.77272
 Alpha virt. eigenvalues --    0.77605   0.77763   0.78241   0.78720   0.79247
 Alpha virt. eigenvalues --    0.79861   0.79972   0.80806   0.80959   0.81407
 Alpha virt. eigenvalues --    0.82148   0.82245   0.83028   0.83773   0.84036
 Alpha virt. eigenvalues --    0.84471   0.84819   0.85939   0.86182   0.86976
 Alpha virt. eigenvalues --    0.87203   0.87390   0.87934   0.88723   0.89148
 Alpha virt. eigenvalues --    0.89809   0.90218   0.90763   0.91134   0.91799
 Alpha virt. eigenvalues --    0.92673   0.93497   0.93569   0.94384   0.94737
 Alpha virt. eigenvalues --    0.95810   0.96517   0.97291   0.97376   0.98364
 Alpha virt. eigenvalues --    0.98741   0.99158   0.99494   0.99692   1.00283
 Alpha virt. eigenvalues --    1.00663   1.00951   1.01816   1.02647   1.03267
 Alpha virt. eigenvalues --    1.04159   1.04522   1.05973   1.06895   1.07108
 Alpha virt. eigenvalues --    1.07603   1.08074   1.08493   1.09323   1.09563
 Alpha virt. eigenvalues --    1.09854   1.10163   1.10852   1.11037   1.11289
 Alpha virt. eigenvalues --    1.11670   1.11936   1.13644   1.15847   1.17386
 Alpha virt. eigenvalues --    1.18789   1.19933   1.20868   1.21539   1.21992
 Alpha virt. eigenvalues --    1.22922   1.23661   1.24777   1.25082   1.26372
 Alpha virt. eigenvalues --    1.28142   1.28608   1.29347   1.29550   1.30731
 Alpha virt. eigenvalues --    1.32250   1.34783   1.36014   1.38644   1.40342
 Alpha virt. eigenvalues --    1.41063   1.41508   1.41582   1.42965   1.43401
 Alpha virt. eigenvalues --    1.43847   1.44286   1.44839   1.45789   1.46645
 Alpha virt. eigenvalues --    1.47498   1.48397   1.48784   1.49148   1.49615
 Alpha virt. eigenvalues --    1.51021   1.52729   1.53388   1.53569   1.54156
 Alpha virt. eigenvalues --    1.54774   1.55819   1.56038   1.56675   1.57046
 Alpha virt. eigenvalues --    1.58399   1.58580   1.59286   1.59647   1.59858
 Alpha virt. eigenvalues --    1.60887   1.61024   1.61231   1.61412   1.61816
 Alpha virt. eigenvalues --    1.62458   1.62570   1.63009   1.63661   1.64193
 Alpha virt. eigenvalues --    1.65052   1.66441   1.67957   1.68559   1.69621
 Alpha virt. eigenvalues --    1.70350   1.70567   1.72113   1.72386   1.73167
 Alpha virt. eigenvalues --    1.73624   1.73684   1.74047   1.74565   1.75788
 Alpha virt. eigenvalues --    1.75884   1.76500   1.77146   1.80345   1.80643
 Alpha virt. eigenvalues --    1.81209   1.81557   1.82166   1.82542   1.82855
 Alpha virt. eigenvalues --    1.83106   1.83436   1.84255   1.84444   1.85464
 Alpha virt. eigenvalues --    1.86194   1.86504   1.87185   1.88297   1.88907
 Alpha virt. eigenvalues --    1.89402   1.89516   1.90006   1.90244   1.90418
 Alpha virt. eigenvalues --    1.90489   1.91174   1.91431   1.92123   1.92722
 Alpha virt. eigenvalues --    1.92905   1.93704   1.94384   1.94447   1.95128
 Alpha virt. eigenvalues --    1.95543   1.96036   1.96254   1.97361   1.97992
 Alpha virt. eigenvalues --    1.98289   1.99296   1.99953   2.00438   2.00737
 Alpha virt. eigenvalues --    2.01409   2.02177   2.02318   2.03208   2.03476
 Alpha virt. eigenvalues --    2.05091   2.05155   2.06021   2.07312   2.08130
 Alpha virt. eigenvalues --    2.08240   2.09657   2.10957   2.12319   2.13174
 Alpha virt. eigenvalues --    2.13718   2.14772   2.16962   2.23052   2.23542
 Alpha virt. eigenvalues --    2.26050   2.26353   2.26524   2.26927   2.27223
 Alpha virt. eigenvalues --    2.28135   2.29176   2.30543   2.32551   2.32907
 Alpha virt. eigenvalues --    2.33176   2.33432   2.33656   2.33733   2.33906
 Alpha virt. eigenvalues --    2.34569   2.35028   2.36146   2.37302   2.37590
 Alpha virt. eigenvalues --    2.38677   2.40164   2.41754   2.42311   2.47911
 Alpha virt. eigenvalues --    2.49252   2.52245   2.52768   2.54002   2.55967
 Alpha virt. eigenvalues --    2.56353   2.56642   2.57330   2.58039   2.58422
 Alpha virt. eigenvalues --    2.58645   2.60137   2.60433   2.60872   2.61321
 Alpha virt. eigenvalues --    2.61925   2.62447   2.63152   2.63555   2.64044
 Alpha virt. eigenvalues --    2.64873   2.65212   2.65780   2.66015   2.66063
 Alpha virt. eigenvalues --    2.66301   2.67304   2.67689   2.68915   2.68973
 Alpha virt. eigenvalues --    2.69568   2.69694   2.69978   2.71923   2.73080
 Alpha virt. eigenvalues --    2.73439   2.73727   2.74375   2.74998   2.76170
 Alpha virt. eigenvalues --    2.77699   2.79195   2.79878   2.80070   2.81086
 Alpha virt. eigenvalues --    2.81502   2.81864   2.82172   2.83060   2.83659
 Alpha virt. eigenvalues --    2.84634   2.84835   2.85947   2.86083   2.86857
 Alpha virt. eigenvalues --    2.88156   2.90002   2.91793   2.92663   2.94285
 Alpha virt. eigenvalues --    2.94738   2.97672   2.99573   3.04174   3.05083
 Alpha virt. eigenvalues --    3.05816   3.06880   3.08272   3.08959   3.11984
 Alpha virt. eigenvalues --    3.12268   3.16059   3.16786   3.17986   3.18556
 Alpha virt. eigenvalues --    3.23946   3.24274   3.25131   3.25796   3.30473
 Alpha virt. eigenvalues --    3.30565   3.31041   3.31596   3.32728   3.33298
 Alpha virt. eigenvalues --    3.35019   3.36231   3.38868   3.40125   3.43741
 Alpha virt. eigenvalues --    3.44399   3.45916   3.46839   3.47001   3.47882
 Alpha virt. eigenvalues --    3.51862   3.51896   3.55460   3.56396   3.56788
 Alpha virt. eigenvalues --    3.57100   3.63229   3.64598   3.77690   3.77922
 Alpha virt. eigenvalues --    3.83611   3.84258   3.98728   3.99791   4.00250
 Alpha virt. eigenvalues --    4.01235   4.01577   4.02780   4.04194   4.05251
 Alpha virt. eigenvalues --    4.11441   4.11693   4.13122   4.14860   4.20804
 Alpha virt. eigenvalues --    4.22116   4.54764   4.56322   4.79433   4.79551
 Alpha virt. eigenvalues --    4.80594   4.81123   7.81788   7.83439   7.87959
 Alpha virt. eigenvalues --    7.89778  17.20624  17.21197  17.22922  17.24155
 Alpha virt. eigenvalues --   17.44477  17.46185  17.51584  17.52659  17.52994
 Alpha virt. eigenvalues --   17.54207  17.54710  17.58101  23.37036  23.38195
 Alpha virt. eigenvalues --   23.55252  23.55699  23.69743  23.70718  23.85592
 Alpha virt. eigenvalues --   23.86283  23.86887  23.87135  23.90881  23.91006
 Alpha virt. eigenvalues --   23.92536  23.92943  23.98032  23.99136  24.00903
 Alpha virt. eigenvalues --   24.01934  24.03530  24.04550  24.06976  24.07098
 Alpha virt. eigenvalues --   24.08045  24.08304  24.14386  24.14483  24.15511
 Alpha virt. eigenvalues --   24.15842 188.92938 188.94942 189.00532 189.02816
          Condensed to atoms (all electrons):
               1          2          3          4          5          6
     1  S   15.383921   0.009181  -0.063030   0.006192  -0.000258   0.010027
     2  S    0.009181  15.390259  -0.000095  -0.000082   0.000346   0.001132
     3  C   -0.063030  -0.000095   4.880197   0.501809  -0.031224  -0.063315
     4  C    0.006192  -0.000082   0.501809   4.898230   0.476347  -0.039559
     5  C   -0.000258   0.000346  -0.031224   0.476347   4.916019   0.491259
     6  C    0.010027   0.001132  -0.063315  -0.039559   0.491259   4.899521
     7  C    0.002614   0.009777  -0.000000   0.000000  -0.000000  -0.000002
     8  C    0.000310  -0.000357   0.000000  -0.000000   0.000000  -0.000000
     9  C   -0.000029   0.006172  -0.000000   0.000000  -0.000000  -0.000000
    10  C   -0.000207  -0.063334   0.000000  -0.000000   0.000000  -0.000001
    11  C    0.009168   0.285343   0.000034  -0.000002   0.000004  -0.000252
    12  C   -0.070755  -0.093422  -0.000514   0.000027  -0.000018   0.000058
    13  C    0.315576  -0.096353  -0.000588   0.000008  -0.000691   0.012214
    14  C   -0.093394   0.295599   0.018868  -0.001704   0.015956  -0.091911
    15  C   -0.087454  -0.071947   0.016842  -0.059837  -0.007866   0.470202
    16  C    0.305440   0.007869   0.433216  -0.041763  -0.063060  -0.035624
    17  H   -0.003364   0.000025   0.419700  -0.037856   0.007590  -0.000680
    18  H    0.000110   0.000004   0.007732  -0.046245   0.409392  -0.039126
    19  H   -0.000654   0.004868  -0.001856   0.009348  -0.048345   0.410842
    20  H    0.003308  -0.000688  -0.000003   0.000000  -0.000000   0.000000
    21  H   -0.000003   0.000124   0.000000  -0.000000  -0.000000   0.000000
    22  H   -0.000003  -0.000368  -0.000000   0.000000   0.000000   0.000000
    23  H    0.000018  -0.003495   0.000000  -0.000000   0.000000  -0.000000
    24  H   -0.000373  -0.000003  -0.042586   0.414636  -0.043981   0.008050
    25  S    0.000006  -0.004443  -0.000009   0.000036   0.000471  -0.005872
    26  S   -0.000051  -0.009461  -0.000000  -0.000001  -0.000008  -0.000058
    27  C    0.000000  -0.000035   0.000004  -0.000087  -0.003470  -0.002145
    28  C   -0.000000   0.000033   0.000011  -0.000434  -0.004733   0.001699
    29  C   -0.000000   0.000023   0.000004  -0.000103   0.000088   0.000009
    30  C    0.000007  -0.000014  -0.000009  -0.000017   0.000300   0.002102
    31  C    0.000000   0.000037   0.000000  -0.000000  -0.000000  -0.000000
    32  C    0.000000  -0.000270  -0.000000   0.000000  -0.000000  -0.000000
    33  C   -0.000000  -0.000418   0.000000  -0.000000   0.000000   0.000000
    34  C   -0.000000  -0.001759  -0.000000   0.000000  -0.000000  -0.000000
    35  C   -0.000000  -0.008049  -0.000000   0.000000  -0.000000  -0.000009
    36  C    0.000000   0.002824   0.000000  -0.000000  -0.000000   0.000033
    37  C   -0.000001  -0.012325   0.000000  -0.000001   0.000029   0.001200
    38  C   -0.000008  -0.003836   0.000001  -0.000001   0.000039  -0.000205
    39  C    0.000005  -0.000519  -0.000004   0.000047  -0.000002  -0.003256
    40  C    0.000006  -0.002375  -0.000016   0.000115   0.000624  -0.010936
    41  H   -0.000000   0.000003   0.000000   0.000002   0.000121  -0.000103
    42  H    0.000000   0.000000  -0.000000   0.000033   0.000112   0.000016
    43  H    0.000003   0.000023  -0.000002  -0.000005   0.000029   0.000129
    44  H   -0.000000   0.000143   0.000000  -0.000000  -0.000000   0.000000
    45  H    0.000000   0.000001  -0.000000   0.000000   0.000000  -0.000000
    46  H    0.000000   0.000014  -0.000000   0.000000  -0.000000  -0.000000
    47  H   -0.000000  -0.000038  -0.000000   0.000000  -0.000000  -0.000000
    48  H    0.000000   0.000001  -0.000001   0.000012   0.000058   0.000047
               7          8          9         10         11         12
     1  S    0.002614   0.000310  -0.000029  -0.000207   0.009168  -0.070755
     2  S    0.009777  -0.000357   0.006172  -0.063334   0.285343  -0.093422
     3  C   -0.000000   0.000000  -0.000000   0.000000   0.000034  -0.000514
     4  C    0.000000  -0.000000   0.000000  -0.000000  -0.000002   0.000027
     5  C   -0.000000   0.000000  -0.000000   0.000000   0.000004  -0.000018
     6  C   -0.000002  -0.000000  -0.000000  -0.000001  -0.000252   0.000058
     7  C    4.887266   0.508310  -0.048916  -0.056554  -0.044289   0.479020
     8  C    0.508310   4.884372   0.488839  -0.038364  -0.055952  -0.027646
     9  C   -0.048916   0.488839   4.895436   0.506855  -0.045601  -0.052968
    10  C   -0.056554  -0.038364   0.506855   4.870943   0.443987   0.009670
    11  C   -0.044289  -0.055952  -0.045601   0.443987   5.424316   0.413237
    12  C    0.479020  -0.027646  -0.052968   0.009670   0.413237   4.956724
    13  C   -0.090922   0.013554  -0.001253   0.018043  -0.098258   0.393026
    14  C    0.011266  -0.000611  -0.000014  -0.000589  -0.076974  -0.013162
    15  C   -0.000008  -0.000016   0.000025  -0.000516   0.003899   0.021232
    16  C   -0.000293   0.000002  -0.000002   0.000033  -0.000098   0.003609
    17  H   -0.000000   0.000000  -0.000000   0.000000   0.000001  -0.000008
    18  H    0.000000  -0.000000   0.000000  -0.000000  -0.000000  -0.000000
    19  H   -0.000001  -0.000000  -0.000000  -0.000004  -0.000247   0.000027
    20  H    0.419187  -0.040245   0.007630  -0.000956   0.009068  -0.045094
    21  H   -0.038593   0.411363  -0.042604   0.007115   0.000240   0.007641
    22  H    0.007770  -0.043647   0.414353  -0.041933   0.009044  -0.000353
    23  H   -0.000719   0.007243  -0.039020   0.415181  -0.043129   0.007378
    24  H    0.000000   0.000000   0.000000  -0.000000  -0.000000  -0.000000
    25  S   -0.000001   0.000000  -0.000001  -0.000013   0.000071  -0.000035
    26  S   -0.000014  -0.000010   0.000018   0.000091  -0.000189   0.000010
    27  C    0.000000  -0.000000   0.000000  -0.000000   0.000000   0.000000
    28  C    0.000000  -0.000000  -0.000000  -0.000000  -0.000000   0.000000
    29  C   -0.000000   0.000000  -0.000000  -0.000000   0.000000  -0.000000
    30  C   -0.000000   0.000000   0.000000   0.000000  -0.000000  -0.000000
    31  C    0.000000  -0.000000   0.000015   0.000155  -0.000157  -0.000001
    32  C    0.000000  -0.000000   0.000001  -0.000682   0.000080   0.000002
    33  C   -0.000000   0.000000  -0.000091  -0.000854   0.000131   0.000005
    34  C   -0.000001  -0.000002  -0.000076   0.000398   0.000395   0.000016
    35  C    0.000000   0.000000   0.000006   0.000444  -0.000087  -0.000020
    36  C    0.000001  -0.000000   0.000012   0.000358  -0.000394   0.000003
    37  C   -0.000000   0.000000  -0.000001  -0.000055   0.000525  -0.000005
    38  C    0.000000   0.000000  -0.000000  -0.000015   0.000089   0.000002
    39  C    0.000000  -0.000000   0.000000   0.000000  -0.000026   0.000003
    40  C    0.000000   0.000000   0.000000  -0.000000   0.000001  -0.000000
    41  H   -0.000000   0.000000  -0.000000  -0.000000   0.000000  -0.000000
    42  H   -0.000000   0.000000  -0.000000  -0.000000   0.000000  -0.000000
    43  H    0.000000  -0.000000  -0.000000   0.000000   0.000000   0.000000
    44  H    0.000000   0.000000   0.000000   0.000010  -0.000009  -0.000000
    45  H    0.000000   0.000000  -0.000000   0.000008  -0.000000   0.000000
    46  H   -0.000000   0.000000   0.000009   0.000048  -0.000003  -0.000000
    47  H   -0.000000  -0.000001   0.000021   0.000108   0.000006  -0.000001
    48  H    0.000000  -0.000000   0.000000   0.000000  -0.000000   0.000000
              13         14         15         16         17         18
     1  S    0.315576  -0.093394  -0.087454   0.305440  -0.003364   0.000110
     2  S   -0.096353   0.295599  -0.071947   0.007869   0.000025   0.000004
     3  C   -0.000588   0.018868   0.016842   0.433216   0.419700   0.007732
     4  C    0.000008  -0.001704  -0.059837  -0.041763  -0.037856  -0.046245
     5  C   -0.000691   0.015956  -0.007866  -0.063060   0.007590   0.409392
     6  C    0.012214  -0.091911   0.470202  -0.035624  -0.000680  -0.039126
     7  C   -0.090922   0.011266  -0.000008  -0.000293  -0.000000   0.000000
     8  C    0.013554  -0.000611  -0.000016   0.000002   0.000000  -0.000000
     9  C   -0.001253  -0.000014   0.000025  -0.000002  -0.000000   0.000000
    10  C    0.018043  -0.000589  -0.000516   0.000033   0.000000  -0.000000
    11  C   -0.098258  -0.076974   0.003899  -0.000098   0.000001  -0.000000
    12  C    0.393026  -0.013162   0.021232   0.003609  -0.000008  -0.000000
    13  C    5.472500   0.362146  -0.007766  -0.087808  -0.000118   0.000018
    14  C    0.362146   5.492215   0.393883  -0.104098  -0.000330  -0.000411
    15  C   -0.007766   0.393883   4.982422   0.399819   0.007353   0.008903
    16  C   -0.087808  -0.104098   0.399819   5.402555  -0.047959  -0.000167
    17  H   -0.000118  -0.000330   0.007353  -0.047959   0.569576  -0.000318
    18  H    0.000018  -0.000411   0.008903  -0.000167  -0.000318   0.579599
    19  H    0.000291  -0.017279  -0.053849   0.010784   0.000062  -0.009958
    20  H   -0.012286   0.000098   0.000020  -0.000110   0.000000   0.000000
    21  H   -0.000468   0.000015  -0.000000  -0.000000  -0.000000   0.000000
    22  H   -0.000004   0.000010  -0.000000  -0.000000   0.000000   0.000000
    23  H   -0.000259  -0.000170  -0.000009   0.000001   0.000000  -0.000000
    24  H    0.000010  -0.000005  -0.000494   0.009163  -0.007952  -0.007982
    25  S    0.000067   0.000135  -0.000839  -0.000022  -0.000000  -0.000307
    26  S    0.000240  -0.000126   0.000226  -0.000031   0.000000  -0.000001
    27  C   -0.000000  -0.000004   0.000195  -0.000003   0.000000   0.005022
    28  C   -0.000000   0.000001   0.000252  -0.000017   0.000001   0.006075
    29  C   -0.000000  -0.000006  -0.000077  -0.000004   0.000000  -0.000075
    30  C   -0.000002  -0.000025   0.000081   0.000002  -0.000000  -0.000355
    31  C   -0.000002   0.000029   0.000000   0.000000   0.000000  -0.000000
    32  C   -0.000000   0.000005   0.000000   0.000000  -0.000000  -0.000000
    33  C    0.000000  -0.000004  -0.000000   0.000000   0.000000   0.000000
    34  C    0.000001  -0.000001   0.000001  -0.000000  -0.000000  -0.000000
    35  C   -0.000000   0.000037   0.000009  -0.000000  -0.000000  -0.000000
    36  C   -0.000011   0.000149  -0.000024  -0.000000   0.000000   0.000000
    37  C   -0.000000   0.000299  -0.000133  -0.000005   0.000000   0.000028
    38  C   -0.000022   0.000418  -0.000158   0.000002   0.000000   0.000007
    39  C    0.000001  -0.000031   0.000030   0.000011  -0.000000  -0.000326
    40  C   -0.000002   0.000041  -0.000305   0.000028  -0.000000  -0.000755
    41  H    0.000000  -0.000001  -0.000007   0.000000  -0.000000   0.000300
    42  H    0.000000  -0.000000  -0.000008  -0.000001  -0.000000  -0.000032
    43  H   -0.000001  -0.000013   0.000027  -0.000000   0.000000   0.000003
    44  H    0.000000  -0.000005  -0.000000  -0.000000   0.000000  -0.000000
    45  H   -0.000000   0.000000   0.000000   0.000000  -0.000000  -0.000000
    46  H   -0.000000   0.000000   0.000000  -0.000000   0.000000   0.000000
    47  H    0.000000   0.000001   0.000000  -0.000000  -0.000000  -0.000000
    48  H   -0.000000  -0.000000   0.000002  -0.000001  -0.000000   0.000223
              19         20         21         22         23         24
     1  S   -0.000654   0.003308  -0.000003  -0.000003   0.000018  -0.000373
     2  S    0.004868  -0.000688   0.000124  -0.000368  -0.003495  -0.000003
     3  C   -0.001856  -0.000003   0.000000  -0.000000   0.000000  -0.042586
     4  C    0.009348   0.000000  -0.000000   0.000000  -0.000000   0.414636
     5  C   -0.048345  -0.000000  -0.000000   0.000000   0.000000  -0.043981
     6  C    0.410842   0.000000   0.000000   0.000000  -0.000000   0.008050
     7  C   -0.000001   0.419187  -0.038593   0.007770  -0.000719   0.000000
     8  C   -0.000000  -0.040245   0.411363  -0.043647   0.007243   0.000000
     9  C   -0.000000   0.007630  -0.042604   0.414353  -0.039020   0.000000
    10  C   -0.000004  -0.000956   0.007115  -0.041933   0.415181  -0.000000
    11  C   -0.000247   0.009068   0.000240   0.009044  -0.043129  -0.000000
    12  C    0.000027  -0.045094   0.007641  -0.000353   0.007378  -0.000000
    13  C    0.000291  -0.012286  -0.000468  -0.000004  -0.000259   0.000010
    14  C   -0.017279   0.000098   0.000015   0.000010  -0.000170  -0.000005
    15  C   -0.053849   0.000020  -0.000000  -0.000000  -0.000009  -0.000494
    16  C    0.010784  -0.000110  -0.000000  -0.000000   0.000001   0.009163
    17  H    0.000062   0.000000  -0.000000   0.000000   0.000000  -0.007952
    18  H   -0.009958   0.000000   0.000000   0.000000  -0.000000  -0.007982
    19  H    0.591977   0.000000   0.000000   0.000000   0.000001  -0.000282
    20  H    0.000000   0.574677  -0.007756  -0.000315   0.000060   0.000000
    21  H    0.000000  -0.007756   0.576244  -0.007654  -0.000307   0.000000
    22  H    0.000000  -0.000315  -0.007654   0.576731  -0.007587  -0.000000
    23  H    0.000001   0.000060  -0.000307  -0.007587   0.551688   0.000000
    24  H   -0.000282   0.000000   0.000000  -0.000000   0.000000   0.577959
    25  S    0.003604  -0.000000   0.000000  -0.000000   0.000004   0.000003
    26  S   -0.000044   0.000001  -0.000000  -0.000000  -0.000001   0.000000
    27  C   -0.001091  -0.000000  -0.000000   0.000000  -0.000000  -0.000012
    28  C   -0.002450   0.000000  -0.000000   0.000000   0.000000  -0.000034
    29  C   -0.000511  -0.000000   0.000000  -0.000000   0.000000   0.000012
    30  C   -0.001799   0.000000   0.000000  -0.000000  -0.000000   0.000005
    31  C   -0.000007   0.000000  -0.000000  -0.000000   0.000047  -0.000000
    32  C    0.000000  -0.000000   0.000000   0.000002   0.002285  -0.000000
    33  C   -0.000000  -0.000000   0.000000   0.000020   0.003032  -0.000000
    34  C    0.000003  -0.000000   0.000000   0.000016   0.000362   0.000000
    35  C    0.000008  -0.000000   0.000000   0.000001  -0.001159   0.000000
    36  C   -0.000164  -0.000000  -0.000000   0.000000  -0.000598  -0.000000
    37  C   -0.004261  -0.000000   0.000000   0.000000   0.000021  -0.000000
    38  C   -0.000028  -0.000000   0.000000  -0.000000   0.000015  -0.000000
    39  C   -0.000471   0.000000  -0.000000   0.000000  -0.000001   0.000002
    40  C    0.001653  -0.000000  -0.000000  -0.000000  -0.000000   0.000002
    41  H    0.000105  -0.000000   0.000000   0.000000  -0.000000  -0.000001
    42  H    0.000022  -0.000000   0.000000  -0.000000   0.000000   0.000002
    43  H    0.000001   0.000000  -0.000000   0.000000  -0.000000  -0.000000
    44  H    0.000002   0.000000  -0.000000  -0.000000   0.000015   0.000000
    45  H   -0.000000   0.000000  -0.000000  -0.000000   0.000059   0.000000
    46  H    0.000000   0.000000  -0.000000   0.000003   0.000079   0.000000
    47  H    0.000000   0.000000  -0.000000   0.000001   0.000032   0.000000
    48  H    0.000024   0.000000   0.000000  -0.000000  -0.000000   0.000004
              25         26         27         28         29         30
     1  S    0.000006  -0.000051   0.000000  -0.000000  -0.000000   0.000007
     2  S   -0.004443  -0.009461  -0.000035   0.000033   0.000023  -0.000014
     3  C   -0.000009  -0.000000   0.000004   0.000011   0.000004  -0.000009
     4  C    0.000036  -0.000001  -0.000087  -0.000434  -0.000103  -0.000017
     5  C    0.000471  -0.000008  -0.003470  -0.004733   0.000088   0.000300
     6  C   -0.005872  -0.000058  -0.002145   0.001699   0.000009   0.002102
     7  C   -0.000001  -0.000014   0.000000   0.000000  -0.000000  -0.000000
     8  C    0.000000  -0.000010  -0.000000  -0.000000   0.000000   0.000000
     9  C   -0.000001   0.000018   0.000000  -0.000000  -0.000000   0.000000
    10  C   -0.000013   0.000091  -0.000000  -0.000000  -0.000000   0.000000
    11  C    0.000071  -0.000189   0.000000  -0.000000   0.000000  -0.000000
    12  C   -0.000035   0.000010   0.000000   0.000000  -0.000000  -0.000000
    13  C    0.000067   0.000240  -0.000000  -0.000000  -0.000000  -0.000002
    14  C    0.000135  -0.000126  -0.000004   0.000001  -0.000006  -0.000025
    15  C   -0.000839   0.000226   0.000195   0.000252  -0.000077   0.000081
    16  C   -0.000022  -0.000031  -0.000003  -0.000017  -0.000004   0.000002
    17  H   -0.000000   0.000000   0.000000   0.000001   0.000000  -0.000000
    18  H   -0.000307  -0.000001   0.005022   0.006075  -0.000075  -0.000355
    19  H    0.003604  -0.000044  -0.001091  -0.002450  -0.000511  -0.001799
    20  H   -0.000000   0.000001  -0.000000   0.000000  -0.000000   0.000000
    21  H    0.000000  -0.000000  -0.000000  -0.000000   0.000000   0.000000
    22  H   -0.000000  -0.000000   0.000000   0.000000  -0.000000  -0.000000
    23  H    0.000004  -0.000001  -0.000000   0.000000   0.000000  -0.000000
    24  H    0.000003   0.000000  -0.000012  -0.000034   0.000012   0.000005
    25  S   15.392949   0.011978  -0.059633   0.005651   0.000128   0.009490
    26  S    0.011978  15.367028  -0.000238  -0.000021   0.000309   0.002680
    27  C   -0.059633  -0.000238   4.872792   0.510094  -0.040291  -0.050235
    28  C    0.005651  -0.000021   0.510094   4.888473   0.489386  -0.050880
    29  C    0.000128   0.000309  -0.040291   0.489386   4.868983   0.511420
    30  C    0.009490   0.002680  -0.050235  -0.050880   0.511420   4.863045
    31  C    0.002883   0.010678  -0.000001   0.000000  -0.000000  -0.000001
    32  C    0.000256  -0.000434   0.000000  -0.000000   0.000000  -0.000000
    33  C    0.000004   0.006379  -0.000000   0.000000  -0.000000   0.000000
    34  C   -0.000273  -0.063514   0.000000  -0.000000   0.000000  -0.000001
    35  C    0.009654   0.318915   0.000033  -0.000002   0.000002  -0.000310
    36  C   -0.073486  -0.087031  -0.000525   0.000028  -0.000020   0.000087
    37  C    0.318509  -0.093628   0.000058  -0.000039  -0.000677   0.011271
    38  C   -0.087066   0.327099   0.015953  -0.001109   0.013452  -0.088859
    39  C   -0.099402  -0.071020  -0.000426  -0.049791  -0.029197   0.487170
    40  C    0.326334   0.009369   0.437826  -0.051430  -0.056598  -0.041470
    41  H   -0.003008   0.000022   0.422467  -0.038161   0.007502  -0.000698
    42  H    0.000108  -0.000001   0.006943  -0.041751   0.411099  -0.037139
    43  H   -0.000632   0.003000  -0.000914   0.007682  -0.039327   0.420554
    44  H    0.003262  -0.000575  -0.000003   0.000000  -0.000000   0.000000
    45  H   -0.000006   0.000099   0.000000  -0.000000  -0.000000   0.000000
    46  H   -0.000003  -0.000371  -0.000000   0.000000   0.000000   0.000000
    47  H    0.000021  -0.003363   0.000000  -0.000000   0.000000  -0.000000
    48  H   -0.000414  -0.000003  -0.042693   0.414671  -0.041743   0.007484
              31         32         33         34         35         36
     1  S    0.000000   0.000000  -0.000000  -0.000000  -0.000000   0.000000
     2  S    0.000037  -0.000270  -0.000418  -0.001759  -0.008049   0.002824
     3  C    0.000000  -0.000000   0.000000  -0.000000  -0.000000   0.000000
     4  C   -0.000000   0.000000  -0.000000   0.000000   0.000000  -0.000000
     5  C   -0.000000  -0.000000   0.000000  -0.000000  -0.000000  -0.000000
     6  C   -0.000000  -0.000000   0.000000  -0.000000  -0.000009   0.000033
     7  C    0.000000   0.000000  -0.000000  -0.000001   0.000000   0.000001
     8  C   -0.000000  -0.000000   0.000000  -0.000002   0.000000  -0.000000
     9  C    0.000015   0.000001  -0.000091  -0.000076   0.000006   0.000012
    10  C    0.000155  -0.000682  -0.000854   0.000398   0.000444   0.000358
    11  C   -0.000157   0.000080   0.000131   0.000395  -0.000087  -0.000394
    12  C   -0.000001   0.000002   0.000005   0.000016  -0.000020   0.000003
    13  C   -0.000002  -0.000000   0.000000   0.000001  -0.000000  -0.000011
    14  C    0.000029   0.000005  -0.000004  -0.000001   0.000037   0.000149
    15  C    0.000000   0.000000  -0.000000   0.000001   0.000009  -0.000024
    16  C    0.000000   0.000000   0.000000  -0.000000  -0.000000  -0.000000
    17  H    0.000000  -0.000000   0.000000  -0.000000  -0.000000   0.000000
    18  H   -0.000000  -0.000000   0.000000  -0.000000  -0.000000   0.000000
    19  H   -0.000007   0.000000  -0.000000   0.000003   0.000008  -0.000164
    20  H    0.000000  -0.000000  -0.000000  -0.000000  -0.000000  -0.000000
    21  H   -0.000000   0.000000   0.000000   0.000000   0.000000  -0.000000
    22  H   -0.000000   0.000002   0.000020   0.000016   0.000001   0.000000
    23  H    0.000047   0.002285   0.003032   0.000362  -0.001159  -0.000598
    24  H   -0.000000  -0.000000  -0.000000   0.000000   0.000000  -0.000000
    25  S    0.002883   0.000256   0.000004  -0.000273   0.009654  -0.073486
    26  S    0.010678  -0.000434   0.006379  -0.063514   0.318915  -0.087031
    27  C   -0.000001   0.000000  -0.000000   0.000000   0.000033  -0.000525
    28  C    0.000000  -0.000000   0.000000  -0.000000  -0.000002   0.000028
    29  C   -0.000000   0.000000  -0.000000   0.000000   0.000002  -0.000020
    30  C   -0.000001  -0.000000   0.000000  -0.000001  -0.000310   0.000087
    31  C    4.887785   0.504385  -0.049837  -0.055448  -0.039450   0.482708
    32  C    0.504385   4.894605   0.485716  -0.039462  -0.056564  -0.029755
    33  C   -0.049837   0.485716   4.894740   0.506037  -0.045520  -0.052847
    34  C   -0.055448  -0.039462   0.506037   4.869307   0.437634   0.008902
    35  C   -0.039450  -0.056564  -0.045520   0.437634   5.380367   0.407084
    36  C    0.482708  -0.029755  -0.052847   0.008902   0.407084   4.985317
    37  C   -0.092946   0.013378  -0.001188   0.017510  -0.096494   0.376952
    38  C    0.011530  -0.000619  -0.000051  -0.000422  -0.091184  -0.012111
    39  C    0.000094  -0.000016   0.000026  -0.000494   0.003244   0.021207
    40  C   -0.000289   0.000002  -0.000002   0.000033   0.000000   0.002217
    41  H   -0.000000   0.000000  -0.000000   0.000000   0.000001  -0.000010
    42  H    0.000000  -0.000000  -0.000000   0.000000  -0.000000  -0.000000
    43  H    0.000000  -0.000000   0.000000  -0.000003  -0.000092   0.000013
    44  H    0.421299  -0.040132   0.007601  -0.000981   0.009164  -0.044435
    45  H   -0.038008   0.412433  -0.041932   0.007013   0.000210   0.007568
    46  H    0.007604  -0.043178   0.415033  -0.041062   0.008839  -0.000372
    47  H   -0.000638   0.007390  -0.037366   0.420326  -0.046452   0.007312
    48  H    0.000000   0.000000   0.000000  -0.000000  -0.000000  -0.000000
              37         38         39         40         41         42
     1  S   -0.000001  -0.000008   0.000005   0.000006  -0.000000   0.000000
     2  S   -0.012325  -0.003836  -0.000519  -0.002375   0.000003   0.000000
     3  C    0.000000   0.000001  -0.000004  -0.000016   0.000000  -0.000000
     4  C   -0.000001  -0.000001   0.000047   0.000115   0.000002   0.000033
     5  C    0.000029   0.000039  -0.000002   0.000624   0.000121   0.000112
     6  C    0.001200  -0.000205  -0.003256  -0.010936  -0.000103   0.000016
     7  C   -0.000000   0.000000   0.000000   0.000000  -0.000000  -0.000000
     8  C    0.000000   0.000000  -0.000000   0.000000   0.000000   0.000000
     9  C   -0.000001  -0.000000   0.000000   0.000000  -0.000000  -0.000000
    10  C   -0.000055  -0.000015   0.000000  -0.000000  -0.000000  -0.000000
    11  C    0.000525   0.000089  -0.000026   0.000001   0.000000   0.000000
    12  C   -0.000005   0.000002   0.000003  -0.000000  -0.000000  -0.000000
    13  C   -0.000000  -0.000022   0.000001  -0.000002   0.000000   0.000000
    14  C    0.000299   0.000418  -0.000031   0.000041  -0.000001  -0.000000
    15  C   -0.000133  -0.000158   0.000030  -0.000305  -0.000007  -0.000008
    16  C   -0.000005   0.000002   0.000011   0.000028   0.000000  -0.000001
    17  H    0.000000   0.000000  -0.000000  -0.000000  -0.000000  -0.000000
    18  H    0.000028   0.000007  -0.000326  -0.000755   0.000300  -0.000032
    19  H   -0.004261  -0.000028  -0.000471   0.001653   0.000105   0.000022
    20  H   -0.000000  -0.000000   0.000000  -0.000000  -0.000000  -0.000000
    21  H    0.000000   0.000000  -0.000000  -0.000000   0.000000   0.000000
    22  H    0.000000  -0.000000   0.000000  -0.000000   0.000000  -0.000000
    23  H    0.000021   0.000015  -0.000001  -0.000000  -0.000000   0.000000
    24  H   -0.000000  -0.000000   0.000002   0.000002  -0.000001   0.000002
    25  S    0.318509  -0.087066  -0.099402   0.326334  -0.003008   0.000108
    26  S   -0.093628   0.327099  -0.071020   0.009369   0.000022  -0.000001
    27  C    0.000058   0.015953  -0.000426   0.437826   0.422467   0.006943
    28  C   -0.000039  -0.001109  -0.049791  -0.051430  -0.038161  -0.041751
    29  C   -0.000677   0.013452  -0.029197  -0.056598   0.007502   0.411099
    30  C    0.011271  -0.088859   0.487170  -0.041470  -0.000698  -0.037139
    31  C   -0.092946   0.011530   0.000094  -0.000289  -0.000000   0.000000
    32  C    0.013378  -0.000619  -0.000016   0.000002   0.000000  -0.000000
    33  C   -0.001188  -0.000051   0.000026  -0.000002  -0.000000  -0.000000
    34  C    0.017510  -0.000422  -0.000494   0.000033   0.000000   0.000000
    35  C   -0.096494  -0.091184   0.003244   0.000000   0.000001  -0.000000
    36  C    0.376952  -0.012111   0.021207   0.002217  -0.000010  -0.000000
    37  C    5.473325   0.361776  -0.016879  -0.095393  -0.000106   0.000016
    38  C    0.361776   5.435587   0.396470  -0.093956  -0.000299  -0.000465
    39  C   -0.016879   0.396470   4.949250   0.385332   0.007346   0.007471
    40  C   -0.095393  -0.093956   0.385332   5.486861  -0.048539   0.000249
    41  H   -0.000106  -0.000299   0.007346  -0.048539   0.562335  -0.000312
    42  H    0.000016  -0.000465   0.007471   0.000249  -0.000312   0.569278
    43  H    0.000122  -0.011949  -0.045492   0.008978   0.000059  -0.007599
    44  H   -0.011878   0.000042   0.000009  -0.000077   0.000000   0.000000
    45  H   -0.000462   0.000017   0.000000  -0.000000  -0.000000   0.000000
    46  H   -0.000002   0.000010  -0.000000  -0.000000   0.000000   0.000000
    47  H   -0.000340  -0.000080  -0.000007   0.000001   0.000000  -0.000000
    48  H    0.000010  -0.000002  -0.000276   0.008903  -0.007819  -0.007379
              43         44         45         46         47         48
     1  S    0.000003  -0.000000   0.000000   0.000000  -0.000000   0.000000
     2  S    0.000023   0.000143   0.000001   0.000014  -0.000038   0.000001
     3  C   -0.000002   0.000000  -0.000000  -0.000000  -0.000000  -0.000001
     4  C   -0.000005  -0.000000   0.000000   0.000000   0.000000   0.000012
     5  C    0.000029  -0.000000   0.000000  -0.000000  -0.000000   0.000058
     6  C    0.000129   0.000000  -0.000000  -0.000000  -0.000000   0.000047
     7  C    0.000000   0.000000   0.000000  -0.000000  -0.000000   0.000000
     8  C   -0.000000   0.000000   0.000000   0.000000  -0.000001  -0.000000
     9  C   -0.000000   0.000000  -0.000000   0.000009   0.000021   0.000000
    10  C    0.000000   0.000010   0.000008   0.000048   0.000108   0.000000
    11  C    0.000000  -0.000009  -0.000000  -0.000003   0.000006  -0.000000
    12  C    0.000000  -0.000000   0.000000  -0.000000  -0.000001   0.000000
    13  C   -0.000001   0.000000  -0.000000  -0.000000   0.000000  -0.000000
    14  C   -0.000013  -0.000005   0.000000   0.000000   0.000001  -0.000000
    15  C    0.000027  -0.000000   0.000000   0.000000   0.000000   0.000002
    16  C   -0.000000  -0.000000   0.000000  -0.000000  -0.000000  -0.000001
    17  H    0.000000   0.000000  -0.000000   0.000000  -0.000000  -0.000000
    18  H    0.000003  -0.000000  -0.000000   0.000000  -0.000000   0.000223
    19  H    0.000001   0.000002  -0.000000   0.000000   0.000000   0.000024
    20  H    0.000000   0.000000   0.000000   0.000000   0.000000   0.000000
    21  H   -0.000000  -0.000000  -0.000000  -0.000000  -0.000000   0.000000
    22  H    0.000000  -0.000000  -0.000000   0.000003   0.000001  -0.000000
    23  H   -0.000000   0.000015   0.000059   0.000079   0.000032  -0.000000
    24  H   -0.000000   0.000000   0.000000   0.000000   0.000000   0.000004
    25  S   -0.000632   0.003262  -0.000006  -0.000003   0.000021  -0.000414
    26  S    0.003000  -0.000575   0.000099  -0.000371  -0.003363  -0.000003
    27  C   -0.000914  -0.000003   0.000000  -0.000000   0.000000  -0.042693
    28  C    0.007682   0.000000  -0.000000   0.000000  -0.000000   0.414671
    29  C   -0.039327  -0.000000  -0.000000   0.000000   0.000000  -0.041743
    30  C    0.420554   0.000000   0.000000   0.000000  -0.000000   0.007484
    31  C    0.000000   0.421299  -0.038008   0.007604  -0.000638   0.000000
    32  C   -0.000000  -0.040132   0.412433  -0.043178   0.007390   0.000000
    33  C    0.000000   0.007601  -0.041932   0.415033  -0.037366   0.000000
    34  C   -0.000003  -0.000981   0.007013  -0.041062   0.420326  -0.000000
    35  C   -0.000092   0.009164   0.000210   0.008839  -0.046452  -0.000000
    36  C    0.000013  -0.044435   0.007568  -0.000372   0.007312  -0.000000
    37  C    0.000122  -0.011878  -0.000462  -0.000002  -0.000340   0.000010
    38  C   -0.011949   0.000042   0.000017   0.000010  -0.000080  -0.000002
    39  C   -0.045492   0.000009   0.000000  -0.000000  -0.000007  -0.000276
    40  C    0.008978  -0.000077  -0.000000  -0.000000   0.000001   0.008903
    41  H    0.000059   0.000000  -0.000000   0.000000   0.000000  -0.007819
    42  H   -0.007599   0.000000   0.000000   0.000000  -0.000000  -0.007379
    43  H    0.567920   0.000000   0.000000   0.000000   0.000000  -0.000302
    44  H    0.000000   0.567686  -0.007613  -0.000304   0.000061  -0.000000
    45  H    0.000000  -0.007613   0.568740  -0.007412  -0.000312   0.000000
    46  H    0.000000  -0.000304  -0.007412   0.568449  -0.007735  -0.000000
    47  H    0.000000   0.000061  -0.000312  -0.007735   0.561469   0.000000
    48  H   -0.000302  -0.000000   0.000000  -0.000000   0.000000   0.569179
 Mulliken charges:
               1
     1  S    0.273692
     2  S    0.359890
     3  C   -0.075167
     4  C   -0.079146
     5  C   -0.115127
     6  C   -0.015486
     7  C   -0.044898
     8  C   -0.107141
     9  C   -0.088816
    10  C   -0.069370
    11  C   -0.233972
    12  C    0.012312
    13  C   -0.190880
    14  C   -0.190305
    15  C   -0.014111
    16  C   -0.191468
    17  H    0.094278
    18  H    0.088643
    19  H    0.109680
    20  H    0.093402
    21  H    0.094643
    22  H    0.093914
    23  H    0.108937
    24  H    0.093857
    25  S    0.249841
    26  S    0.272050
    27  C   -0.069583
    28  C   -0.083204
    29  C   -0.093788
    30  C   -0.043884
    31  C   -0.052466
    32  C   -0.109425
    33  C   -0.088612
    34  C   -0.064453
    35  C   -0.190259
    36  C   -0.000991
    37  C   -0.148209
    38  C   -0.170064
    39  C    0.059920
    40  C   -0.266432
    41  H    0.098800
    42  H    0.099338
[...]
 Alpha  occ. eigenvalues --   -0.88212  -0.84135  -0.82097  -0.77756  -0.77358
 Alpha  occ. eigenvalues --   -0.73954  -0.72123  -0.70016  -0.64604  -0.61534
 Alpha  occ. eigenvalues --   -0.59365  -0.58463  -0.56987  -0.51417  -0.50220
 Alpha  occ. eigenvalues --   -0.49097  -0.47492  -0.45651  -0.45496  -0.43992
 Alpha  occ. eigenvalues --   -0.43459  -0.43123  -0.40830  -0.40503  -0.39185
 Alpha  occ. eigenvalues --   -0.37284  -0.36629  -0.36204  -0.34755  -0.34568
 Alpha  occ. eigenvalues --   -0.34541  -0.32716  -0.28877  -0.28202  -0.24977
 Alpha  occ. eigenvalues --   -0.22873  -0.21142
 Alpha virt. eigenvalues --   -0.05634  -0.02355  -0.01598  -0.00538   0.00529
 Alpha virt. eigenvalues --    0.01813   0.04007   0.04132   0.04931   0.06274
 Alpha virt. eigenvalues --    0.07391   0.07898   0.08378   0.11281   0.12155
 Alpha virt. eigenvalues --    0.12961   0.13135   0.13213   0.14000   0.15844
 Alpha virt. eigenvalues --    0.16154   0.17705   0.19341   0.20644   0.23011
 Alpha virt. eigenvalues --    0.23155   0.24325   0.26898   0.27563   0.27685
 Alpha virt. eigenvalues --    0.28436   0.28987   0.29456   0.32878   0.34470
 Alpha virt. eigenvalues --    0.35827   0.37143   0.37441   0.38214   0.38784
 Alpha virt. eigenvalues --    0.38883   0.39778   0.40122   0.40604   0.41645
 Alpha virt. eigenvalues --    0.42095   0.42530   0.42664   0.44115   0.44468
 Alpha virt. eigenvalues --    0.44601   0.45384   0.45598   0.45806   0.45854
 Alpha virt. eigenvalues --    0.48376   0.49289   0.49469   0.50768   0.51611
 Alpha virt. eigenvalues --    0.53255   0.54814   0.56289   0.57146   0.58053
 Alpha virt. eigenvalues --    0.58699   0.59093   0.59418   0.59907   0.60359
 Alpha virt. eigenvalues --    0.60411   0.61633   0.62056   0.63624   0.63701
 Alpha virt. eigenvalues --    0.64647   0.66103   0.69589   0.70213   0.71869
 Alpha virt. eigenvalues --    0.72254   0.72781   0.73141   0.73662   0.74647
 Alpha virt. eigenvalues --    0.75797   0.76581   0.77499   0.78874   0.80150
 Alpha virt. eigenvalues --    0.80162   0.81842   0.83225   0.84213   0.84656
 Alpha virt. eigenvalues --    0.85760   0.85988   0.88325   0.88908   0.90284
 Alpha virt. eigenvalues --    0.90749   0.92271   0.93486   0.95972   0.96735
 Alpha virt. eigenvalues --    0.96753   0.98696   0.99409   1.00269   1.01682
 Alpha virt. eigenvalues --    1.02841   1.06057   1.06378   1.07540   1.08927
 Alpha virt. eigenvalues --    1.08966   1.09370   1.10726   1.11288   1.15743
 Alpha virt. eigenvalues --    1.18261   1.20258   1.21823   1.22319   1.24553
 Alpha virt. eigenvalues --    1.27961   1.28574   1.28963   1.34786   1.38699
 Alpha virt. eigenvalues --    1.40575   1.41488   1.42794   1.44201   1.44815
 Alpha virt. eigenvalues --    1.47146   1.47767   1.48942   1.52381   1.53863
 Alpha virt. eigenvalues --    1.53968   1.55929   1.56261   1.57906   1.58887
 Alpha virt. eigenvalues --    1.59642   1.60508   1.61021   1.61377   1.62167
 Alpha virt. eigenvalues --    1.63004   1.67110   1.69298   1.70367   1.71951
 Alpha virt. eigenvalues --    1.72872   1.73402   1.74565   1.75625   1.80208
 Alpha virt. eigenvalues --    1.80449   1.81565   1.82362   1.83269   1.83805
 Alpha virt. eigenvalues --    1.84229   1.86699   1.88786   1.89364   1.89440
 Alpha virt. eigenvalues --    1.89832   1.90823   1.90933   1.93661   1.93791
 Alpha virt. eigenvalues --    1.93884   1.96146   1.96192   1.98879   1.99490
 Alpha virt. eigenvalues --    2.00049   2.01111   2.02442   2.03435   2.06509
 Alpha virt. eigenvalues --    2.08045   2.10951   2.12006   2.14109   2.22431
 Alpha virt. eigenvalues --    2.25160   2.26306   2.26613   2.27653   2.32650
 Alpha virt. eigenvalues --    2.32800   2.32874   2.33279   2.34000   2.35759
 Alpha virt. eigenvalues --    2.37461   2.40468   2.47840   2.51992   2.53565
 Alpha virt. eigenvalues --    2.55488   2.56345   2.57262   2.59883   2.60227
 Alpha virt. eigenvalues --    2.61400   2.61610   2.62145   2.63709   2.64452
 Alpha virt. eigenvalues --    2.65123   2.65896   2.68911   2.68924   2.68999
 Alpha virt. eigenvalues --    2.70410   2.71688   2.73533   2.77368   2.79988
 Alpha virt. eigenvalues --    2.81351   2.81647   2.82207   2.83175   2.83583
 Alpha virt. eigenvalues --    2.87662   2.91705   2.92379   2.97020   3.03978
 Alpha virt. eigenvalues --    3.04299   3.07287   3.10371   3.15514   3.17190
 Alpha virt. eigenvalues --    3.23369   3.24266   3.29670   3.30263   3.31901
 Alpha virt. eigenvalues --    3.34398   3.38725   3.42628   3.44597   3.45777
 Alpha virt. eigenvalues --    3.50498   3.54556   3.55826   3.62654   3.75967
 Alpha virt. eigenvalues --    3.82196   3.98588   4.00437   4.01595   4.03790
 Alpha virt. eigenvalues --    4.11484   4.11840   4.19784   4.54946   4.79699
 Alpha virt. eigenvalues --    4.79826   7.81119   7.83950  17.19635  17.21066
 Alpha virt. eigenvalues --   17.43715  17.51189  17.52287  17.53379  23.35373
 Alpha virt. eigenvalues --   23.53811  23.68918  23.85655  23.85823  23.90157
 Alpha virt. eigenvalues --   23.92087  23.98132  24.01115  24.03741  24.07284
 Alpha virt. eigenvalues --   24.07407  24.14660  24.14770 188.92517 188.95387
          Condensed to atoms (all electrons):
              25         26         27         28         29         30
    25  S   15.370523   0.009509  -0.061459   0.005886  -0.000104   0.009384
    26  S    0.009509  15.370525  -0.000169  -0.000038   0.000327   0.002372
    27  C   -0.061459  -0.000169   4.861978   0.512596  -0.040614  -0.053516
    28  C    0.005886  -0.000038   0.512596   4.879620   0.492497  -0.051847
    29  C   -0.000104   0.000327  -0.040614   0.492497   4.878964   0.511504
    30  C    0.009384   0.002372  -0.053516  -0.051847   0.511504   4.875470
    31  C    0.002372   0.009384  -0.000001   0.000000  -0.000000  -0.000001
    32  C    0.000327  -0.000104   0.000000  -0.000000   0.000000  -0.000000
    33  C   -0.000038   0.005886  -0.000000   0.000000  -0.000000   0.000000
    34  C   -0.000169  -0.061459   0.000000  -0.000000   0.000000  -0.000001
    35  C    0.008663   0.306204   0.000033  -0.000002   0.000002  -0.000301
    36  C   -0.070640  -0.088260  -0.000510   0.000027  -0.000018   0.000095
    37  C    0.316758  -0.092102  -0.000489  -0.000022  -0.000613   0.011534
    38  C   -0.092102   0.316758   0.017259  -0.001042   0.013327  -0.089227
    39  C   -0.088260  -0.070641   0.006575  -0.049977  -0.029889   0.486125
    40  C    0.306204   0.008663   0.443282  -0.047947  -0.054767  -0.045304
    41  H   -0.003185   0.000023   0.419542  -0.037064   0.007347  -0.000568
    42  H    0.000110  -0.000002   0.007001  -0.041818   0.411183  -0.038059
    43  H   -0.000642   0.003289  -0.000908   0.007554  -0.039506   0.419764
    44  H    0.003289  -0.000642  -0.000003   0.000000  -0.000000   0.000000
    45  H   -0.000002   0.000110   0.000000  -0.000000  -0.000000   0.000000
    46  H   -0.000003  -0.000371  -0.000000   0.000000   0.000000   0.000000
    47  H    0.000023  -0.003185   0.000000  -0.000000   0.000000  -0.000000
    48  H   -0.000371  -0.000003  -0.041209   0.413909  -0.042679   0.007628
              31         32         33         34         35         36
    25  S    0.002372   0.000327  -0.000038  -0.000169   0.008663  -0.070640
    26  S    0.009384  -0.000104   0.005886  -0.061459   0.306204  -0.088260
    27  C   -0.000001   0.000000  -0.000000   0.000000   0.000033  -0.000510
    28  C    0.000000  -0.000000   0.000000  -0.000000  -0.000002   0.000027
    29  C   -0.000000   0.000000  -0.000000   0.000000   0.000002  -0.000018
    30  C   -0.000001  -0.000000   0.000000  -0.000001  -0.000301   0.000095
    31  C    4.875471   0.511503  -0.051847  -0.053516  -0.045303   0.486124
    32  C    0.511503   4.878965   0.492497  -0.040613  -0.054767  -0.029888
    33  C   -0.051847   0.492497   4.879622   0.512595  -0.047946  -0.049978
    34  C   -0.053516  -0.040613   0.512595   4.861979   0.443281   0.006576
    35  C   -0.045303  -0.054767  -0.047946   0.443281   5.390494   0.412306
    36  C    0.486124  -0.029888  -0.049978   0.006576   0.412306   4.949766
    37  C   -0.089228   0.013327  -0.001042   0.017259  -0.096659   0.392876
    38  C    0.011534  -0.000613  -0.000022  -0.000490  -0.086684  -0.014513
    39  C    0.000095  -0.000018   0.000027  -0.000510   0.003450   0.021086
    40  C   -0.000301   0.000002  -0.000002   0.000033  -0.000008   0.003450
    41  H   -0.000000   0.000000  -0.000000   0.000000   0.000001  -0.000009
    42  H    0.000000  -0.000000  -0.000000   0.000000  -0.000000  -0.000000
    43  H    0.000000  -0.000000   0.000000  -0.000003  -0.000107   0.000013
    44  H    0.419764  -0.039506   0.007554  -0.000908   0.008941  -0.045792
    45  H   -0.038059   0.411183  -0.041818   0.007001   0.000281   0.007543
    46  H    0.007628  -0.042679   0.413909  -0.041209   0.008883  -0.000338
    47  H   -0.000568   0.007347  -0.037064   0.419542  -0.047522   0.007228
    48  H    0.000000   0.000000   0.000000  -0.000000  -0.000000  -0.000000
              37         38         39         40         41         42
    25  S    0.316758  -0.092102  -0.088260   0.306204  -0.003185   0.000110
    26  S   -0.092102   0.316758  -0.070641   0.008663   0.000023  -0.000002
    27  C   -0.000489   0.017259   0.006575   0.443282   0.419542   0.007001
    28  C   -0.000022  -0.001042  -0.049977  -0.047947  -0.037064  -0.041818
    29  C   -0.000613   0.013327  -0.029889  -0.054767   0.007347   0.411183
    30  C    0.011534  -0.089227   0.486125  -0.045304  -0.000568  -0.038059
    31  C   -0.089228   0.011534   0.000095  -0.000301  -0.000000   0.000000
    32  C    0.013327  -0.000613  -0.000018   0.000002   0.000000  -0.000000
    33  C   -0.001042  -0.000022   0.000027  -0.000002  -0.000000  -0.000000
    34  C    0.017259  -0.000490  -0.000510   0.000033   0.000000   0.000000
    35  C   -0.096659  -0.086684   0.003450  -0.000008   0.000001  -0.000000
    36  C    0.392876  -0.014513   0.021086   0.003450  -0.000009  -0.000000
    37  C    5.459037   0.363444  -0.014513  -0.086684  -0.000118   0.000016
    38  C    0.363444   5.459036   0.392877  -0.096659  -0.000333  -0.000469
    39  C   -0.014513   0.392877   4.949764   0.412306   0.007228   0.007543
    40  C   -0.086684  -0.096659   0.412306   5.390494  -0.047522   0.000281
    41  H   -0.000118  -0.000333   0.007228  -0.047522   0.565102  -0.000321
    42  H    0.000016  -0.000469   0.007543   0.000281  -0.000321   0.571820
    43  H    0.000092  -0.012023  -0.045792   0.008941   0.000064  -0.007644
    44  H   -0.012023   0.000092   0.000013  -0.000107   0.000000   0.000000
    45  H   -0.000469   0.000016  -0.000000  -0.000000  -0.000000   0.000000
    46  H   -0.000002   0.000010  -0.000000  -0.000000   0.000000   0.000000
    47  H   -0.000333  -0.000118  -0.000009   0.000001   0.000000  -0.000000
    48  H    0.000010  -0.000002  -0.000338   0.008883  -0.007754  -0.007455
              43         44         45         46         47         48
    25  S   -0.000642   0.003289  -0.000002  -0.000003   0.000023  -0.000371
    26  S    0.003289  -0.000642   0.000110  -0.000371  -0.003185  -0.000003
    27  C   -0.000908  -0.000003   0.000000  -0.000000   0.000000  -0.041209
    28  C    0.007554   0.000000  -0.000000   0.000000  -0.000000   0.413909
    29  C   -0.039506  -0.000000  -0.000000   0.000000   0.000000  -0.042679
    30  C    0.419764   0.000000   0.000000   0.000000  -0.000000   0.007628
    31  C    0.000000   0.419764  -0.038059   0.007628  -0.000568   0.000000
    32  C   -0.000000  -0.039506   0.411183  -0.042679   0.007347   0.000000
    33  C    0.000000   0.007554  -0.041818   0.413909  -0.037064   0.000000
    34  C   -0.000003  -0.000908   0.007001  -0.041209   0.419542  -0.000000
    35  C   -0.000107   0.008941   0.000281   0.008883  -0.047522  -0.000000
    36  C    0.000013  -0.045792   0.007543  -0.000338   0.007228  -0.000000
    37  C    0.000092  -0.012023  -0.000469  -0.000002  -0.000333   0.000010
    38  C   -0.012023   0.000092   0.000016   0.000010  -0.000118  -0.000002
    39  C   -0.045792   0.000013  -0.000000  -0.000000  -0.000009  -0.000338
    40  C    0.008941  -0.000107  -0.000000  -0.000000   0.000001   0.008883
    41  H    0.000064   0.000000  -0.000000   0.000000   0.000000  -0.007754
    42  H   -0.007644   0.000000   0.000000   0.000000  -0.000000  -0.007455
    43  H    0.571387   0.000000   0.000000   0.000000   0.000000  -0.000308
    44  H    0.000000   0.571387  -0.007644  -0.000308   0.000064   0.000000
    45  H    0.000000  -0.007644   0.571820  -0.007455  -0.000321   0.000000
    46  H    0.000000  -0.000308  -0.007455   0.570655  -0.007754  -0.000000
    47  H    0.000000   0.000064  -0.000321  -0.007754   0.565102   0.000000
    48  H   -0.000308   0.000000   0.000000  -0.000000   0.000000   0.570655
 Mulliken charges:
               1
     1  S    0.000000
     2  S    0.000000
     3  C    0.000000
     4  C    0.000000
     5  C    0.000000
     6  C    0.000000
     7  C    0.000000
     8  C    0.000000
     9  C    0.000000
    10  C    0.000000
    11  C    0.000000
    12  C    0.000000
    13  C    0.000000
    14  C    0.000000
    15  C    0.000000
    16  C    0.000000
    17  H    0.000000
    18  H    0.000000
    19  H    0.000000
    20  H    0.000000
    21  H    0.000000
    22  H    0.000000
    23  H    0.000000
    24  H    0.000000
    25  S    0.283929
    26  S    0.283927
    27  C   -0.069388
    28  C   -0.082331
    29  C   -0.106963
    30  C   -0.045052
    31  C   -0.045052
    32  C   -0.106963
    33  C   -0.082331
    34  C   -0.069388
    35  C   -0.203237
    36  C    0.012859
    37  C   -0.180057
    38  C   -0.180058
    39  C    0.012859
    40  C   -0.203237
    41  H    0.097567
    42  H    0.097813
    43  H    0.095828
    44  H    0.095828
    45  H    0.097813
    46  H    0.099034
    47  H    0.097567
    48  H    0.099034
 Sum of Mulliken charges =  -0.00000
 Mulliken charges with hydrogens summed into heavy atoms:
               1
     1  S    0.000000
     2  S    0.000000
     3  C    0.000000
     4  C    0.000000
     5  C    0.000000
     6  C    0.000000
     7  C    0.000000
     8  C    0.000000
     9  C    0.000000
    10  C    0.000000
    11  C    0.000000
    12  C    0.000000
    13  C    0.000000
    14  C    0.000000
    15  C    0.000000
    16  C    0.000000
    25  S    0.283929
    26  S    0.283927
    27  C    0.028178
    28  C    0.016703
    29  C   -0.009150
    30  C    0.050776
    31  C    0.050776
    32  C   -0.009150
    33  C    0.016703
    34  C    0.028179
    35  C   -0.203237
    36  C    0.012859
    37  C   -0.180057
    38  C   -0.180058
    39  C    0.012859
    40  C   -0.203237
         Mulliken charges condensed to fragments:
      1      0.000000
      2     -0.000000
 Electronic spatial extent (au):  <R**2>=           7125.2699
 Charge=             -0.0000 electrons
 Dipole moment (field-independent basis, Debye):
    X=             -0.0000    Y=              0.0000    Z=             -0.0000  Tot=              0.0000
 Quadrupole moment (field-independent basis, Debye-Ang):
   XX=            -91.1503   YY=           -110.5932   ZZ=            -98.5327
   XY=              7.3424   XZ=             -0.2367   YZ=              2.9487
 Traceless Quadrupole moment (field-independent basis, Debye-Ang):
   XX=              8.9418   YY=            -10.5011   ZZ=              1.5594
   XY=              7.3424   XZ=             -0.2367   YZ=              2.9487
 Octapole moment (field-independent basis, Debye-Ang**2):
  XXX=           -209.5673  YYY=            781.1637  ZZZ=            -57.7084  XYY=           -119.3311
  XXY=            225.8643  XXZ=            -18.1578  XZZ=            -75.6060  YZZ=            233.1433
  YYZ=            -35.4758  XYZ=              4.2507
 Hexadecapole moment (field-independent basis, Debye-Ang**3):
 XXXX=          -4223.3131 YYYY=          -4388.4733 ZZZZ=          -1195.2222 XXXY=              8.9592
 XXXZ=           -153.2865 YYYX=            -34.5871 YYYZ=             63.8186 ZZZX=           -105.0827
 ZZZY=             29.2879 XXYY=          -1442.4724 XXZZ=           -895.3331 YYZZ=           -867.2189
 XXYZ=             29.8384 YYXZ=            -42.0901 ZZXY=            -14.0106
 N-N= 1.192162449365D+03 E-N=-5.527361719789D+03  KE= 1.331399857000D+03
 CPIOFr:  IOpCl= 0 IRwI=-1 IRwCP=  731 ICalc=  4 LCPTot=      762852 Len1MO=     1998050 IndFrg=    10753102
 CPIOFr:  IOpCl= 0 IRwI=-2 IRwCP=  731 ICalc=  0 LCPTot=      762852 Len1MO=     1998050 IndFrg=     2760902
 Counterpoise corrected energy =   -2669.806999650429
                   BSSE energy =       0.003399831845
              sum of fragments =   -2669.794633556039
           complexation energy =      -9.89 kcal/mole (raw)
           complexation energy =      -7.76 kcal/mole (corrected)
 1\1\GINC-CMDELL86\SP\RB3LYP\6-311G(d,p)\C28H16S4\OHNO\14-Jul-2021\0\\#
 b3lyp/6-311G** EmpiricalDispersion=GD3 counterpoise=2\\BTBT dimer b3ly
 p/6-311G**\\0,1\S,0,1.6203193263,0.9333401805,-0.9655543418\S,0,-1.620
 3215046,-0.9333388826,0.9655526073\C,0,0.7607010875,0.432046614,-3.596
 4890673\C,0,-0.1990145233,-0.0970811798,-4.456605144\C,0,-1.3358730484
 ,-0.7617409166,-3.9518894629\C,0,-1.5484008838,-0.8661903564,-2.581713
 2069\C,0,1.5483981093,0.866196593,2.581713372\C,0,1.3358706776,0.76174
 32744,3.9518892671\C,0,0.19901583,0.0970776341,4.4566055645\C,0,-0.760
 6973501,-0.4320550248,3.5964887592\C,0,-0.5418750743,-0.3467155574,2.2
 136722139\C,0,0.5874862401,0.3462927079,1.6917199634\C,0,0.5677107081,
 0.3035896045,0.2629304608\C,0,-0.5677107915,-0.3035871419,-0.262930279
 8\C,0,-0.5874867399,-0.3462921765,-1.6917195198\C,0,0.5418798052,0.346
 711325,-2.2136710574\H,0,1.6351619757,0.9441051055,-3.9892419249\H,0,-
 2.069015815,-1.1685664408,-4.6425298944\H,0,-2.4232632237,-1.382224776
 ,-2.1937042881\H,0,2.4232592385,1.3822352091,2.193705084\H,0,2.0690081
 682,1.1685767873,4.6425301772\H,0,0.0489377359,0.0282464127,5.53031334
 02\H,0,-1.6351576368,-0.9441151195,3.9892396112\H,0,-0.0489323111,-0.0
 282538749,-5.5303122329\S,0,-4.5453193263,-3.0816598195,-0.9655543418\
 S,0,-1.3046784954,-4.9483388826,0.9655526073\C,0,-3.6857010875,-3.5829
 53386,-3.5964890673\C,0,-2.7259854767,-4.1120811798,-4.456605144\C,0,-
 1.5891269516,-4.7767409166,-3.9518894629\C,0,-1.3765991162,-4.88119035
 64,-2.5817132069\C,0,-4.4733981093,-3.148803407,2.581713372\C,0,-4.260
 8706776,-3.2532567256,3.9518892671\C,0,-3.12401583,-3.9179223659,4.456
 6055645\C,0,-2.1643026499,-4.4470550248,3.5964887592\C,0,-2.3831249257
 ,-4.3617155574,2.2136722139\C,0,-3.5124862401,-3.6687072921,1.69171996
 34\C,0,-3.4927107081,-3.7114103955,0.2629304608\C,0,-2.3572892085,-4.3
 185871419,-0.2629302798\C,0,-2.3375132601,-4.3612921765,-1.6917195198\
 C,0,-3.4668798052,-3.668288675,-2.2136710574\H,0,-4.5601619757,-3.0708
 948945,-3.9892419249\H,0,-0.855984185,-5.1835664408,-4.6425298944\H,0,
 -0.5017367763,-5.397224776,-2.1937042881\H,0,-5.3482592385,-2.63276479
 09,2.193705084\H,0,-4.9940081682,-2.8464232127,4.6425301772\H,0,-2.973
 9377359,-3.9867535873,5.5303133402\H,0,-1.2898423632,-4.9591151195,3.9
 892396112\H,0,-2.8760676889,-4.0432538749,-5.5303122329\\Version=ES64L
 -G16RevA.03\State=1-A\HF=-1334.8973177\RMSD=8.961e-09\Dipole=-0.112830
 6,-0.343481,-0.0247795\Quadrupole=-2.5939616,-13.7138537,16.3078153,-1
 .156806,-0.3474345,0.8481778\PG=C01 [X(C28H16S4)]\\@


 It is also a good rule not to put too much confidence in
 experimental results until they have been confirmed by
 Theory.
                             -- Sir Arthur Eddington
 Job cpu time:       0 days  2 hours 21 minutes 17.3 seconds.
 Elapsed time:       0 days  0 hours  3 minutes 34.8 seconds.
 File lengths (MBytes):  RWF=    395 Int=      0 D2E=      0 Chk=    113 Scr=      2
 Normal termination of Gaussian 16 at Wed Jul 14 11:38:51 2021.
