 Entering Gaussian System, Link 0=g16
 Initial command:
 /home/g03/g16/l1.exe "/home/scr/21098/Gau-169132.inp" -scrdir="/home/scr/21098/"
 Entering Link 1 = /home/g03/g16/l1.exe PID=    169133.
  
 Copyright (c) 1988,1990,1992,1993,1995,1998,2003,2009,2016,
            Gaussian, Inc.  All Rights Reserved.
  
 This is part of the Gaussian(R) 16 program.  It is based on
 the Gaussian(R) 09 system (copyright 2009, Gaussian, Inc.),
 the Gaussian(R) 03 system (copyright 2003, Gaussian, Inc.),
 the Gaussian(R) 98 system (copyright 1998, Gaussian, Inc.),
 the Gaussian(R) 94 system (copyright 1995, Gaussian, Inc.),
 the Gaussian 92(TM) system (copyright 1992, Gaussian, Inc.),
 the Gaussian 90(TM) system (copyright 1990, Gaussian, Inc.),
 the Gaussian 88(TM) system (copyright 1988, Gaussian, Inc.),
 the Gaussian 86(TM) system (copyright 1986, Carnegie Mellon
 University), and the Gaussian 82(TM) system (copyright 1983,
 Carnegie Mellon University). Gaussian is a federally registered
 trademark of Gaussian, Inc.
  
 This software contains proprietary and confidential information,
 including trade secrets, belonging to Gaussian, Inc.
  
 This software is provided under written license and may be
 used, copied, transmitted, or stored only in accord with that
 written license.
  
 The following legend is applicable only to US Government
 contracts under FAR:
  
                    RESTRICTED RIGHTS LEGEND
  
 Use, reproduction and disclosure by the US Government is
 subject to restrictions as set forth in subparagraphs (a)
 and (c) of the Commercial Computer Software - Restricted
 Rights clause in FAR 52.227-19.
  
 Gaussian, Inc.
 340 Quinnipiac St., Bldg. 40, Wallingford CT 06492
  
  
 ---------------------------------------------------------------
 Warning -- This program may not be used in any manner that
 competes with the business of Gaussian, Inc. or will provide
 assistance to any competitor of Gaussian, Inc.  The licensee
 of this program is prohibited from giving any competitor of
 Gaussian, Inc. access to this program.  By using this program,
 the user acknowledges that Gaussian, Inc. is engaged in the
 business of creating and licensing software in the field of
 computational chemistry and represents and warrants to the
 licensee that it is not a competitor of Gaussian, Inc. and that
 it will not use this program in any manner prohibited above.
 ---------------------------------------------------------------
  

 Cite this work as:
 Gaussian 16, Revision A.03,
 M. J. Frisch, G. W. Trucks, H. B. Schlegel, G. E. Scuseria, 
 M. A. Robb, J. R. Cheeseman, G. Scalmani, V. Barone, 
 G. A. Petersson, H. Nakatsuji, X. Li, M. Caricato, A. V. Marenich, 
 J. Bloino, B. G. Janesko, R. Gomperts, B. Mennucci, H. P. Hratchian, 
 J. V. Ortiz, A. F. Izmaylov, J. L. Sonnenberg, D. Williams-Young, 
 F. Ding, F. Lipparini, F. Egidi, J. Goings, B. Peng, A. Petrone, 
 T. Henderson, D. Ranasinghe, V. G. Zakrzewski, J. Gao, N. Rega, 
 G. Zheng, W. Liang, M. Hada, M. Ehara, K. Toyota, R. Fukuda, 
 J. Hasegawa, M. Ishida, T. Nakajima, Y. Honda, O. Kitao, H. Nakai, 
 T. Vreven, K. Throssell, J. A. Montgomery, Jr., J. E. Peralta, 
 F. Ogliaro, M. J. Bearpark, J. J. Heyd, E. N. Brothers, K. N. Kudin, 
 V. N. Staroverov, T. A. Keith, R. Kobayashi, J. Normand, 
 K. Raghavachari, A. P. Rendell, J. C. Burant, S. S. Iyengar, 
 J. Tomasi, M. Cossi, J. M. Millam, M. Klene, C. Adamo, R. Cammi, 
 J. W. Ochterski, R. L. Martin, K. Morokuma, O. Farkas, 
 J. B. Foresman, and D. J. Fox, Gaussian, Inc., Wallingford CT, 2016.
 
 ******************************************
 Gaussian 16:  ES64L-G16RevA.03 25-Dec-2016
                14-Jul-2021 
 ******************************************
 %NProcShared=40
 Will use up to   40 processors via shared memory.
 %Mem=15GB
 ------------------------------------------------------
 #b3lyp/6-311G** EmpiricalDispersion=GD3 counterpoise=2
 ------------------------------------------------------
 1/38=1,62=2,172=1/1;
 2/12=2,17=6,18=5,40=1/2;
 1/38=1,53=2,62=2,63=1/22;
 3/5=4,6=6,7=101,11=2,25=1,30=1,74=-5,124=31/1,2,3;
 4//1;
 5/5=2,38=5/2;
 6/7=2,8=2,9=2,10=2,28=1/1;
 1/53=2,62=2,63=1/22;
 3/5=7,6=11,7=101,11=2,25=1,30=1,74=-5,82=7,124=31/1,2,3;
 4//1;
 5/5=2,38=5/2;
 6/7=2,8=2,9=2,10=2,28=1/1;
 1/53=2,62=2,63=1/22(-4);
 99/5=1,9=1/99;
 -------------------------
 BTBT dimer b3lyp/6-311G**
 -------------------------
 Symbolic Z-matrix:
 Charge =  0 Multiplicity = 1 in supermolecule
 Charge =  0 Multiplicity = 1 in fragment      1.
 Charge =  0 Multiplicity = 1 in fragment      2.
 S                     1.62032   0.93334  -0.96555    
 S                    -1.62032  -0.93334   0.96555    
 C                     0.7607    0.43205  -3.59649    
 C                    -0.19901  -0.09708  -4.45661    
 C                    -1.33587  -0.76174  -3.95189    
 C                    -1.5484   -0.86619  -2.58171    
 C                     1.5484    0.8662    2.58171    
 C                     1.33587   0.76174   3.95189    
 C                     0.19902   0.09708   4.45661    
 C                    -0.7607   -0.43206   3.59649    
 C                    -0.54188  -0.34672   2.21367    
 C                     0.58749   0.34629   1.69172    
 C                     0.56771   0.30359   0.26293    
 C                    -0.56771  -0.30359  -0.26293    
 C                    -0.58749  -0.34629  -1.69172    
 C                     0.54188   0.34671  -2.21367    
 H                     1.63516   0.94411  -3.98924    
 H                    -2.06902  -1.16857  -4.64253    
 H                    -2.42326  -1.38222  -2.1937     
 H                     2.42326   1.38224   2.19371    
 H                     2.06901   1.16858   4.64253    
 H                     0.04894   0.02825   5.53031    
 H                    -1.63516  -0.94412   3.98924    
 H                    -0.04893  -0.02825  -5.53031    
 S                     1.62032  -7.09666  -0.96555    
 S                    -1.62032  -8.96334   0.96555    
 C                     0.7607   -7.59795  -3.59649    
 C                    -0.19901  -8.12708  -4.45661    
 C                    -1.33587  -8.79174  -3.95189    
 C                    -1.5484   -8.89619  -2.58171    
 C                     1.5484   -7.1638    2.58171    
 C                     1.33587  -7.26826   3.95189    
 C                     0.19902  -7.93292   4.45661    
 C                    -0.7607   -8.46206   3.59649    
 C                    -0.54188  -8.37672   2.21367    
 C                     0.58749  -7.68371   1.69172    
 C                     0.56771  -7.72641   0.26293    
 C                    -0.56771  -8.33359  -0.26293    
 C                    -0.58749  -8.37629  -1.69172    
 C                     0.54188  -7.68329  -2.21367    
 H                     1.63516  -7.08589  -3.98924    
 H                    -2.06902  -9.19857  -4.64253    
 H                    -2.42326  -9.41222  -2.1937     
 H                     2.42326  -6.64776   2.19371    
 H                     2.06901  -6.86142   4.64253    
 H                     0.04894  -8.00175   5.53031    
 H                    -1.63516  -8.97412   3.98924    
 H                    -0.04893  -8.05825  -5.53031    
 
                          Input orientation:                          
 ---------------------------------------------------------------------
 Center     Atomic      Atomic             Coordinates (Angstroms)
 Number     Number       Type             X           Y           Z
 ---------------------------------------------------------------------
      1         16           0        1.620319    0.933340   -0.965554
      2         16           0       -1.620322   -0.933339    0.965553
      3          6           0        0.760701    0.432047   -3.596489
      4          6           0       -0.199015   -0.097081   -4.456605
      5          6           0       -1.335873   -0.761741   -3.951889
      6          6           0       -1.548401   -0.866190   -2.581713
      7          6           0        1.548398    0.866197    2.581713
      8          6           0        1.335871    0.761743    3.951889
      9          6           0        0.199016    0.097078    4.456606
     10          6           0       -0.760697   -0.432055    3.596489
     11          6           0       -0.541875   -0.346716    2.213672
     12          6           0        0.587486    0.346293    1.691720
     13          6           0        0.567711    0.303590    0.262930
     14          6           0       -0.567711   -0.303587   -0.262930
     15          6           0       -0.587487   -0.346292   -1.691720
     16          6           0        0.541880    0.346711   -2.213671
     17          1           0        1.635162    0.944105   -3.989242
     18          1           0       -2.069016   -1.168566   -4.642530
     19          1           0       -2.423263   -1.382225   -2.193704
     20          1           0        2.423259    1.382235    2.193705
     21          1           0        2.069008    1.168577    4.642530
     22          1           0        0.048938    0.028246    5.530313
     23          1           0       -1.635158   -0.944115    3.989240
     24          1           0       -0.048932   -0.028254   -5.530312
     25         16           0        1.620319   -7.096660   -0.965554
     26         16           0       -1.620322   -8.963339    0.965553
     27          6           0        0.760701   -7.597953   -3.596489
     28          6           0       -0.199015   -8.127081   -4.456605
     29          6           0       -1.335873   -8.791741   -3.951889
     30          6           0       -1.548401   -8.896190   -2.581713
     31          6           0        1.548398   -7.163803    2.581713
     32          6           0        1.335871   -7.268257    3.951889
     33          6           0        0.199016   -7.932922    4.456606
     34          6           0       -0.760697   -8.462055    3.596489
     35          6           0       -0.541875   -8.376716    2.213672
     36          6           0        0.587486   -7.683707    1.691720
     37          6           0        0.567711   -7.726410    0.262930
     38          6           0       -0.567711   -8.333587   -0.262930
     39          6           0       -0.587487   -8.376292   -1.691720
     40          6           0        0.541880   -7.683289   -2.213671
     41          1           0        1.635162   -7.085895   -3.989242
     42          1           0       -2.069016   -9.198566   -4.642530
     43          1           0       -2.423263   -9.412225   -2.193704
     44          1           0        2.423259   -6.647765    2.193705
     45          1           0        2.069008   -6.861423    4.642530
     46          1           0        0.048938   -8.001754    5.530313
     47          1           0       -1.635158   -8.974115    3.989240
     48          1           0       -0.048932   -8.058254   -5.530312
 ---------------------------------------------------------------------
                    Distance matrix (angstroms):
                    1          2          3          4          5
     1  S    0.000000
     2  S    4.208969   0.000000
     3  C    2.812838   5.324075   0.000000
     4  C    4.069297   5.667383   1.393137   0.000000
     5  C    4.531067   4.928650   2.438660   1.410304   0.000000
     6  C    3.986360   3.548630   2.836748   2.434665   1.390489
     7  C    3.548632   3.986363   6.243327   7.315687   7.325105
     8  C    4.928652   4.531069   7.577436   8.590473   8.481093
     9  C    5.667385   4.069299   8.079606   8.924206   8.590474
    10  C    5.324076   2.812839   7.402719   8.079605   7.577436
    11  C    4.052297   1.750707   6.005094   6.683747   6.230315
    12  C    2.910752   2.653147   5.291740   6.214263   6.064435
    13  C    1.736014   2.609819   3.866376   4.798169   4.745868
    14  C    2.609817   1.736015   3.663120   4.214913   3.795840
    15  C    2.653146   2.910750   2.459994   2.803143   2.416826
    16  C    1.750703   4.052296   1.402623   2.403462   2.788553
    17  H    3.023743   6.218759   1.086803   2.160255   3.426128
    18  H    5.616881   5.630919   3.415181   2.163228   1.086273
    19  H    4.818792   3.290459   3.923903   3.423390   2.158387
    20  H    3.290462   4.818795   6.098632   7.300091   7.516385
    21  H    5.630921   5.616882   8.374699   9.462562   9.443696
    22  H    6.744237   4.954605   9.163416   9.990782   9.615298
    23  H    6.218758   3.023743   8.073242   8.608848   7.948859
    24  H    4.954602   6.744235   2.146405   1.086328   2.164633
    25  S    8.030000   7.226164   8.021358   8.030661   7.601873
    26  S   10.591279   8.030000  10.712365  10.489539   9.567045
    27  C    8.969043   8.420129   8.030000   7.610778   7.159311
    28  C    9.878697   9.119750   8.655606   8.030000   7.469633
    29  C   10.594077   9.274515   9.465738   8.783182   8.030000
    30  C   10.453345   8.717527   9.663215   9.097274   8.251777
    31  C    8.840363   7.174360   9.822810  10.125707   9.591318
    32  C    9.567045   7.601872  10.798310  11.157258  10.580297
    33  C   10.489544   8.030667  11.624996  11.874517  11.157263
    34  C   10.712373   8.021368  11.539438  11.624999  10.798318
    35  C   10.072721   7.623956  10.632449  10.637786   9.830179
    36  C    9.076418   7.139272   9.688169   9.796805   9.135823
    37  C    8.809565   7.171261   9.027335   9.003807   8.360321
    38  C    9.547623   7.575014   9.471728   9.250020   8.457621
    39  C    9.595362   7.970282   9.112222   8.737324   7.978085
    40  C    8.773091   7.768166   8.235213   7.945453   7.379375
    41  H    8.570358   8.544127   7.578811   7.240590   6.987372
    42  H   11.392404   9.998295  10.092086   9.293466   8.496735
    43  H   11.175403   9.083894  10.441030   9.840727   8.894071
    44  H    8.252199   7.107290   9.295923   9.696102   9.302940
    45  H    9.613026   7.891356  11.080966  11.562634  11.075351
    46  H   11.158021   8.578226  12.447253  12.739069  12.010314
    47  H   11.545812   8.590517  12.319062  12.336796  11.427782
    48  H   10.221163   9.768825   8.745306   8.034653   7.575403
                    6          7          8          9         10
     6  C    0.000000
     7  C    6.265166   0.000000
     8  C    7.325104   1.390489   0.000000
     9  C    7.315687   2.434666   1.410304   0.000000
    10  C    6.243327   2.836750   2.438660   1.393137   0.000000
    11  C    4.927339   2.444556   2.788550   2.403460   1.402622
    12  C    4.928931   1.409163   2.416825   2.803143   2.459994
    13  C    3.733405   2.579734   3.795839   4.214913   3.663121
    14  C    2.579734   3.733404   4.745867   4.798168   3.866376
    15  C    1.409162   4.928931   6.064435   6.214263   5.291739
    16  C    2.444557   4.927338   6.230314   6.683746   6.005093
    17  H    3.923440   6.571990   7.948861   8.608851   8.073244
    18  H    2.146960   8.331605   9.443696   9.462562   8.374698
    19  H    1.087302   6.605612   7.516383   7.300089   6.098630
    20  H    6.605613   1.087303   2.158387   3.423391   3.923905
    21  H    8.331604   2.146959   1.086273   2.163227   3.415181
    22  H    8.316038   3.412445   2.164633   1.086328   2.146407
    23  H    6.571988   3.923441   3.426129   2.160256   1.086802
    24  H    3.412445   8.316037   9.615296   9.990781   9.163414
    25  S    7.174365   8.717532   9.274517   9.119747   8.420121
    26  S    8.840367  10.453350  10.594079   9.878694   8.969035
    27  C    7.188766  10.508686  11.278004  11.152638  10.266630
    28  C    7.619488  11.552940  12.331661  12.134271  11.152634
    29  C    8.045925  12.011775  12.683729  12.331657  11.277996
    30  C    8.030000  11.469757  12.011772  11.552933  10.508675
    31  C    8.712696   8.030000   8.045921   7.619478   7.188750
    32  C    9.591321   8.251780   8.030000   7.469627   7.159299
    33  C   10.125715   9.097282   8.783188   8.030000   7.610773
    34  C    9.822821   9.663228   9.465747   8.655611   8.030000
    35  C    8.967542   9.483466   9.489929   8.796865   8.067075
    36  C    8.324829   8.649641   8.774627   8.266566   7.617887
    37  C    7.722211   8.953848   9.286939   8.884245   8.129262
    38  C    7.880388   9.859307  10.203596   9.692162   8.795827
    39  C    7.623456  10.404222  10.911156  10.498499   9.544949
    40  C    7.139857   9.854060  10.486330  10.253987   9.382700
    41  H    7.127477  10.316043  11.168552  11.179890  10.370971
    42  H    8.599215  12.906387  13.589152  13.204061  12.101440
    43  H    8.599456  12.009357  12.466316  11.896630  10.813598
    44  H    8.485594   7.574665   7.692492   7.453917   7.123232
    45  H   10.060724   8.014618   7.689418   7.207786   7.101986
    46  H   10.921205   9.464838   8.997027   8.171073   7.854650
    47  H   10.436637  10.437811  10.179162   9.266561   8.595681
    48  H    7.916339  12.165617  13.023908  12.896102  11.914865
                   11         12         13         14         15
    11  C    0.000000
    12  C    1.424132   0.000000
    13  C    2.336551   1.429564   0.000000
    14  C    2.477113   2.361669   1.390818   0.000000
    15  C    3.905658   3.647999   2.361670   1.429564   0.000000
    16  C    4.610503   3.905657   2.477112   2.336551   1.424133
    17  H    6.699392   5.807610   4.430653   4.504973   3.447304
    18  H    7.072136   7.033813   5.760478   4.709883   3.402697
    19  H    4.902741   5.210461   4.221724   2.886940   2.166846
    20  H    3.432447   2.166848   2.886941   4.221724   5.210463
    21  H    3.874555   3.402696   4.709882   5.760477   7.033812
    22  H    3.389656   3.889214   5.300025   5.835413   7.259688
    23  H    2.169053   3.447303   4.504972   4.430651   5.807607
    24  H    7.766190   7.259688   5.835412   5.300024   3.889214
    25  S    7.768160   7.970282   7.575015   7.171262   7.139271
    26  S    8.773087   9.595362   9.547624   8.809566   9.076417
    27  C    9.382704   9.544957   8.795837   8.129272   7.617897
    28  C   10.253987  10.498502   9.692167   8.884250   8.266570
    29  C   10.486326  10.911155  10.203596   9.286940   8.774626
    30  C    9.854052  10.404217   9.859304   8.953845   8.649636
    31  C    7.139845   7.623450   7.880385   7.722207   8.324824
    32  C    7.379367   7.978083   8.457620   8.360320   9.135821
    33  C    7.945452   8.737328   9.250026   9.003813   9.796808
    34  C    8.235217   9.112230   9.471737   9.027345   9.688176
    35  C    8.030000   8.811286   8.965728   8.444503   8.929830
    36  C    7.441730   8.030000   8.114108   7.721484   8.164918
    37  C    7.713395   8.198193   8.030000   7.527551   7.721482
    38  C    8.362078   8.971926   8.727344   8.030000   8.114106
    39  C    8.929069   9.429301   8.971928   8.198195   8.030000
    40  C    8.637199   8.929073   8.362084   7.713402   7.441735
    41  H    9.414466   9.413202   8.592142   8.045977   7.459291
    42  H   11.300218  11.759424  11.013938  10.027735   9.448014
    43  H   10.254172  10.926564  10.458395   9.494116   9.263541
    44  H    6.963881   7.248372   7.449314   7.431659   7.991850
    45  H    7.426808   7.928011   8.530662   8.603548   9.467134
    46  H    8.363538   9.204059   9.848511   9.654206  10.543666
    47  H    8.875806   9.853362  10.237862   9.715886  10.383171
    48  H   10.939841  11.099513  10.191287   9.388786   8.631291
                   16         17         18         19         20
    16  C    0.000000
    17  H    2.169054   0.000000
    18  H    3.874558   4.314058   0.000000
    19  H    3.432447   5.010647   2.483523   0.000000
    20  H    4.902740   6.248351   8.568619   7.097914   0.000000
    21  H    7.072134   8.645583  10.430619   8.568617   2.483523
    22  H    7.766190   9.694165  10.459676   8.231747   4.313194
    23  H    6.699390   8.827034   8.645580   6.248347   5.010648
    24  H    3.389656   2.481240   2.483789   4.313193   8.231747
    25  S    7.623949   8.590507   7.891365   7.107298   9.083903
    26  S   10.072716  11.545805   9.613032   8.252206  11.175411
    27  C    8.067079   8.595679   7.102008   7.123252  10.813613
    28  C    8.796865   9.266556   7.207801   7.453931  11.896640
    29  C    9.489925  10.179152   7.689426   7.692500  12.466323
    30  C    9.483457  10.437798   8.014623   7.574669  12.009360
    31  C    8.967532  10.436626  10.060728   8.485597   8.599460
    32  C    9.830173  11.427774  11.075356   9.302945   8.894079
    33  C   10.637785  12.336793  11.562644   9.696113   9.840739
    34  C   10.632452  12.319062  11.080979   9.295938  10.441046
    35  C    9.842463  11.405846  10.064645   8.478649  10.199487
    36  C    8.929825  10.383164   9.467142   7.991859   9.263550
    37  C    8.444496   9.715877   8.603557   7.431667   9.494123
    38  C    8.965722  10.237852   8.530670   7.449322  10.458402
    39  C    8.811282   9.853354   7.928021   7.248382  10.926572
    40  C    8.030000   8.875801   7.426825   6.963898  10.254183
    41  H    7.719557   8.030000   7.011597   7.226799  10.514712
    42  H   10.189625  10.817648   8.030000   8.198624  13.374154
    43  H   10.199476  11.267135   8.606982   8.030000  12.619767
    44  H    8.478635   9.822750   9.845621   8.394287   8.030000
    45  H   10.064632  11.645685  11.650931   9.845619   8.606982
    46  H   11.397770  13.159272  12.436435  10.468543  10.238633
    47  H   11.405849  13.142384  11.645697   9.822765  11.267151
    48  H    9.054977   9.287278   7.234410   7.831971  12.445682
                   21         22         23         24         25
    21  H    0.000000
    22  H    2.483787   0.000000
    23  H    4.314058   2.481244   0.000000
    24  H   10.459675  11.061203   9.694162   0.000000
    25  S    9.998303   9.768819   8.544116   8.578215   0.000000
    26  S   11.392411  10.221158   8.570347  11.158014   4.208969
    27  C   12.101453  11.914867  10.370968   7.854650   2.812838
    28  C   13.204069  12.896100  11.179884   8.171069   4.069297
    29  C   13.589157  13.023903  11.168542   8.997018   4.531067
    30  C   12.906389  12.165609  10.316029   9.464826   3.986360
    31  C    8.599219   7.916325   7.127460  10.921195   3.548632
    32  C    8.496743   7.575393   6.987358  12.010307   4.928652
    33  C    9.293478   8.034649   7.240584  12.739065   5.667385
    34  C   10.092101   8.745308   7.578810  12.447253   5.324076
    35  C   10.189635   9.054974   7.719550  11.397767   4.052297
    36  C    9.448022   8.631284   7.459279  10.543659   2.910752
    37  C   10.027741   9.388778   8.045964   9.654197   1.736014
    38  C   11.013943  10.191280   8.592129   9.848503   2.609817
    39  C   11.759431  11.099507   9.413191   9.204052   2.653146
    40  C   11.300227  10.939838   9.414460   8.363535   1.750703
    41  H   11.951235  11.989539  10.586436   7.417639   3.023743
    42  H   14.519409  13.896278  11.951219   9.432048   5.616881
    43  H   13.374153  12.445671  10.514694  10.238619   4.818792
    44  H    8.198624   7.831953   7.226777  10.468529   3.290462
    45  H    8.030000   7.234389   7.011574  12.436422   5.630921
    46  H    9.432062   8.030000   7.417638  13.635385   6.744237
    47  H   10.817663   9.287282   8.030000  13.159271   6.218758
    48  H   13.896287  13.701770  11.989535   8.030000   4.954602
                   26         27         28         29         30
    26  S    0.000000
    27  C    5.324075   0.000000
    28  C    5.667383   1.393137   0.000000
    29  C    4.928650   2.438660   1.410304   0.000000
    30  C    3.548630   2.836748   2.434665   1.390489   0.000000
    31  C    3.986363   6.243327   7.315687   7.325105   6.265166
    32  C    4.531069   7.577436   8.590473   8.481093   7.325104
    33  C    4.069299   8.079606   8.924206   8.590474   7.315687
    34  C    2.812839   7.402719   8.079605   7.577436   6.243327
    35  C    1.750707   6.005094   6.683747   6.230315   4.927339
    36  C    2.653147   5.291740   6.214263   6.064435   4.928931
    37  C    2.609819   3.866376   4.798169   4.745868   3.733405
    38  C    1.736015   3.663120   4.214913   3.795840   2.579734
    39  C    2.910750   2.459994   2.803143   2.416826   1.409162
    40  C    4.052296   1.402623   2.403462   2.788553   2.444557
    41  H    6.218759   1.086803   2.160255   3.426128   3.923440
    42  H    5.630919   3.415181   2.163228   1.086273   2.146960
    43  H    3.290459   3.923903   3.423390   2.158387   1.087302
    44  H    4.818795   6.098632   7.300091   7.516385   6.605613
    45  H    5.616882   8.374699   9.462562   9.443696   8.331604
    46  H    4.954605   9.163416   9.990782   9.615298   8.316038
    47  H    3.023743   8.073242   8.608848   7.948859   6.571988
    48  H    6.744235   2.146405   1.086328   2.164633   3.412445
                   31         32         33         34         35
    31  C    0.000000
    32  C    1.390489   0.000000
    33  C    2.434666   1.410304   0.000000
    34  C    2.836750   2.438660   1.393137   0.000000
    35  C    2.444556   2.788550   2.403460   1.402622   0.000000
    36  C    1.409163   2.416825   2.803143   2.459994   1.424132
    37  C    2.579734   3.795839   4.214913   3.663121   2.336551
    38  C    3.733404   4.745867   4.798168   3.866376   2.477113
    39  C    4.928931   6.064435   6.214263   5.291739   3.905658
    40  C    4.927338   6.230314   6.683746   6.005093   4.610503
    41  H    6.571990   7.948861   8.608851   8.073244   6.699392
    42  H    8.331605   9.443696   9.462562   8.374698   7.072136
    43  H    6.605612   7.516383   7.300089   6.098630   4.902741
    44  H    1.087303   2.158387   3.423391   3.923905   3.432447
    45  H    2.146959   1.086273   2.163227   3.415181   3.874555
    46  H    3.412445   2.164633   1.086328   2.146407   3.389656
    47  H    3.923441   3.426129   2.160256   1.086802   2.169053
    48  H    8.316037   9.615296   9.990781   9.163414   7.766190
                   36         37         38         39         40
    36  C    0.000000
    37  C    1.429564   0.000000
    38  C    2.361669   1.390818   0.000000
    39  C    3.647999   2.361670   1.429564   0.000000
    40  C    3.905657   2.477112   2.336551   1.424133   0.000000
    41  H    5.807610   4.430653   4.504973   3.447304   2.169054
    42  H    7.033813   5.760478   4.709883   3.402697   3.874558
    43  H    5.210461   4.221724   2.886940   2.166846   3.432447
    44  H    2.166848   2.886941   4.221724   5.210463   4.902740
    45  H    3.402696   4.709882   5.760477   7.033812   7.072134
    46  H    3.889214   5.300025   5.835413   7.259688   7.766190
    47  H    3.447303   4.504972   4.430651   5.807607   6.699390
    48  H    7.259688   5.835412   5.300024   3.889214   3.389656
                   41         42         43         44         45
    41  H    0.000000
    42  H    4.314058   0.000000
    43  H    5.010647   2.483523   0.000000
    44  H    6.248351   8.568619   7.097914   0.000000
    45  H    8.645583  10.430619   8.568617   2.483523   0.000000
    46  H    9.694165  10.459676   8.231747   4.313194   2.483787
    47  H    8.827034   8.645580   6.248347   5.010648   4.314058
    48  H    2.481240   2.483789   4.313193   8.231747  10.459675
                   46         47         48
    46  H    0.000000
    47  H    2.481244   0.000000
    48  H   11.061203   9.694162   0.000000
 Stoichiometry    C28H16S4
 Framework group  C1[X(C28H16S4)]
 Deg. of freedom   138
 Full point group                 C1      NOp   1
 Largest Abelian subgroup         C1      NOp   1
 Largest concise Abelian subgroup C1      NOp   1
                         Standard orientation:                         
 ---------------------------------------------------------------------
 Center     Atomic      Atomic             Coordinates (Angstroms)
 Number     Number       Type             X           Y           Z
 ---------------------------------------------------------------------
      1         16           0       -5.000566   -1.009572   -1.420882
      2         16           0       -3.014052    0.751395    1.845336
      3          6           0       -4.378346   -3.676259   -0.777706
      4          6           0       -3.773067   -4.583341    0.089283
      5          6           0       -3.061487   -4.137493    1.222346
      6          6           0       -2.984415   -2.782685    1.525687
      7          6           0       -5.030208    2.524510   -1.101233
      8          6           0       -4.953132    3.879318   -0.797892
      9          6           0       -4.241546    4.325167    0.335167
     10          6           0       -3.636263    3.418085    1.202154
     11          6           0       -3.694250    2.051724    0.890636
     12          6           0       -4.433223    1.587259   -0.234683
     13          6           0       -4.348989    0.162646   -0.318567
     14          6           0       -3.665631   -0.420821    0.743018
     15          6           0       -3.581395   -1.845433    0.659135
     16          6           0       -4.320364   -2.309897   -0.466189
     17          1           0       -4.926365   -4.023745   -1.649526
     18          1           0       -2.595541   -4.863829    1.882133
     19          1           0       -2.432271   -2.439830    2.397360
     20          1           0       -5.582357    2.181656   -1.972904
     21          1           0       -5.419086    4.605654   -1.457673
     22          1           0       -4.195049    5.387554    0.557162
     23          1           0       -3.088242    3.765568    2.073973
     24          1           0       -3.819561   -5.645727   -0.132716
     25         16           0        3.014051   -0.751397   -1.845334
     26         16           0        5.000565    1.009570    1.420884
     27          6           0        3.636271   -3.418084   -1.202158
     28          6           0        4.241550   -4.325166   -0.335169
     29          6           0        4.953130   -3.879318    0.797894
     30          6           0        5.030202   -2.524510    1.101236
     31          6           0        2.984409    2.782685   -1.525684
     32          6           0        3.061485    4.137493   -1.222343
     33          6           0        3.773071    4.583342   -0.089284
     34          6           0        4.378354    3.676260    0.777702
     35          6           0        4.320367    2.309899    0.466184
     36          6           0        3.581394    1.845434   -0.659135
     37          6           0        3.665628    0.420821   -0.743018
     38          6           0        4.348987   -0.162646    0.318567
     39          6           0        4.433222   -1.587258    0.234683
     40          6           0        3.694253   -2.051722   -0.890641
     41          1           0        3.088252   -3.765570   -2.073978
     42          1           0        5.419076   -4.605654    1.457681
     43          1           0        5.582346   -2.181655    1.972909
     44          1           0        2.432260    2.439830   -2.397356
     45          1           0        2.595531    4.863829   -1.882125
     46          1           0        3.819568    5.645729    0.132711
     47          1           0        4.926375    4.023743    1.649521
     48          1           0        4.195056   -5.387552   -0.557168
 ---------------------------------------------------------------------
 Rotational constants (GHZ):           0.1240371           0.0586974           0.0442548
 Counterpoise: doing full-system calculation.
 Standard basis: 6-311G(d,p) (5D, 7F)
 There are   736 symmetry adapted cartesian basis functions of A   symmetry.
 There are   704 symmetry adapted basis functions of A   symmetry.
   704 basis functions,  1208 primitive gaussians,   736 cartesian basis functions
   124 alpha electrons      124 beta electrons
       nuclear repulsion energy      3302.3179263886 Hartrees.
 NAtoms=   48 NActive=   48 NUniq=   48 SFac= 1.00D+00 NAtFMM=   60 NAOKFM=F Big=F
 Integral buffers will be    131072 words long.
 Raffenetti 2 integral format.
 Two-electron integral symmetry is turned on.
 Nuclear repulsion after empirical dispersion term =     3302.2746195787 Hartrees.
 One-electron integrals computed using PRISM.
 NBasis=   704 RedAO= T EigKep=  1.75D-04  NBF=   704
 NBsUse=   704 1.00D-06 EigRej= -1.00D+00 NBFU=   704
 ExpMin= 7.71D-02 ExpMax= 9.34D+04 ExpMxC= 3.17D+03 IAcc=3 IRadAn=         5 AccDes= 0.00D+00
 Harris functional with IExCor=  402 and IRadAn=       5 diagonalized for initial guess.
 HarFok:  IExCor=  402 AccDes= 0.00D+00 IRadAn=         5 IDoV= 1 UseB2=F ITyADJ=14
 ICtDFT=  3500011 ScaDFX=  1.000000  1.000000  1.000000  1.000000
 FoFCou: FMM=F IPFlag=           0 FMFlag=      100000 FMFlg1=           0
         NFxFlg=           0 DoJE=T BraDBF=F KetDBF=T FulRan=T
         wScrn=  0.000000 ICntrl=       500 IOpCl=  0 I1Cent=   200000004 NGrid=           0
         NMat0=    1 NMatS0=      1 NMatT0=    0 NMatD0=    1 NMtDS0=    0 NMtDT0=    0
 Petite list used in FoFCou.
 Requested convergence on RMS density matrix=1.00D-08 within 128 cycles.
 Requested convergence on MAX density matrix=1.00D-06.
 Requested convergence on             energy=1.00D-06.
 No special actions if energy rises.
 Integral accuracy reduced to 1.0D-05 until final iterations.
 Initial convergence to 1.0D-05 achieved.  Increase integral accuracy.
 SCF Done:  E(RB3LYP) =  -2669.79521504     A.U. after   14 cycles
            NFock= 14  Conv=0.81D-08     -V/T= 2.0026

 **********************************************************************

            Population analysis using the SCF density.

 **********************************************************************

 Orbital symmetries:
       Occupied  (A) (A) (A) (A) (A) (A) (A) (A) (A) (A) (A) (A)
                 (A) (A) (A) (A) (A) (A) (A) (A) (A) (A) (A) (A)
                 (A) (A) (A) (A) (A) (A) (A) (A) (A) (A) (A) (A)
                 (A) (A) (A) (A) (A) (A) (A) (A) (A) (A) (A) (A)
                 (A) (A) (A) (A) (A) (A) (A) (A) (A) (A) (A) (A)
                 (A) (A) (A) (A) (A) (A) (A) (A) (A) (A) (A) (A)
                 (A) (A) (A) (A) (A) (A) (A) (A) (A) (A) (A) (A)
                 (A) (A) (A) (A) (A) (A) (A) (A) (A) (A) (A) (A)
                 (A) (A) (A) (A) (A) (A) (A) (A) (A) (A) (A) (A)
                 (A) (A) (A) (A) (A) (A) (A) (A) (A) (A) (A) (A)
                 (A) (A) (A) (A)
       Virtual   (A) (A) (A) (A) (A) (A) (A) (A) (A) (A) (A) (A)
                 (A) (A) (A) (A) (A) (A) (A) (A) (A) (A) (A) (A)
                 (A) (A) (A) (A) (A) (A) (A) (A) (A) (A) (A) (A)
                 (A) (A) (A) (A) (A) (A) (A) (A) (A) (A) (A) (A)
                 (A) (A) (A) (A) (A) (A) (A) (A) (A) (A) (A) (A)
                 (A) (A) (A) (A) (A) (A) (A) (A) (A) (A) (A) (A)
                 (A) (A) (A) (A) (A) (A) (A) (A) (A) (A) (A) (A)
                 (A) (A) (A) (A) (A) (A) (A) (A) (A) (A) (A) (A)
                 (A) (A) (A) (A) (A) (A) (A) (A) (A) (A) (A) (A)
                 (A) (A) (A) (A) (A) (A) (A) (A) (A) (A) (A) (A)
                 (A) (A) (A) (A) (A) (A) (A) (A) (A) (A) (A) (A)
                 (A) (A) (A) (A) (A) (A) (A) (A) (A) (A) (A) (A)
                 (A) (A) (A) (A) (A) (A) (A) (A) (A) (A) (A) (A)
                 (A) (A) (A) (A) (A) (A) (A) (A) (A) (A) (A) (A)
                 (A) (A) (A) (A) (A) (A) (A) (A) (A) (A) (A) (A)
                 (A) (A) (A) (A) (A) (A) (A) (A) (A) (A) (A) (A)
                 (A) (A) (A) (A) (A) (A) (A) (A) (A) (A) (A) (A)
                 (A) (A) (A) (A) (A) (A) (A) (A) (A) (A) (A) (A)
                 (A) (A) (A) (A) (A) (A) (A) (A) (A) (A) (A) (A)
                 (A) (A) (A) (A) (A) (A) (A) (A) (A) (A) (A) (A)
                 (A) (A) (A) (A) (A) (A) (A) (A) (A) (A) (A) (A)
                 (A) (A) (A) (A) (A) (A) (A) (A) (A) (A) (A) (A)
                 (A) (A) (A) (A) (A) (A) (A) (A) (A) (A) (A) (A)
                 (A) (A) (A) (A) (A) (A) (A) (A) (A) (A) (A) (A)
                 (A) (A) (A) (A) (A) (A) (A) (A) (A) (A) (A) (A)
                 (A) (A) (A) (A) (A) (A) (A) (A) (A) (A) (A) (A)
                 (A) (A) (A) (A) (A) (A) (A) (A) (A) (A) (A) (A)
                 (A) (A) (A) (A) (A) (A) (A) (A) (A) (A) (A) (A)
                 (A) (A) (A) (A) (A) (A) (A) (A) (A) (A) (A) (A)
                 (A) (A) (A) (A) (A) (A) (A) (A) (A) (A) (A) (A)
                 (A) (A) (A) (A) (A) (A) (A) (A) (A) (A) (A) (A)
                 (A) (A) (A) (A) (A) (A) (A) (A) (A) (A) (A) (A)
                 (A) (A) (A) (A) (A) (A) (A) (A) (A) (A) (A) (A)
                 (A) (A) (A) (A) (A) (A) (A) (A) (A) (A) (A) (A)
                 (A) (A) (A) (A) (A) (A) (A) (A) (A) (A) (A) (A)
                 (A) (A) (A) (A) (A) (A) (A) (A) (A) (A) (A) (A)
                 (A) (A) (A) (A) (A) (A) (A) (A) (A) (A) (A) (A)
                 (A) (A) (A) (A) (A) (A) (A) (A) (A) (A) (A) (A)
                 (A) (A) (A) (A) (A) (A) (A) (A) (A) (A) (A) (A)
                 (A) (A) (A) (A) (A) (A) (A) (A) (A) (A) (A) (A)
                 (A) (A) (A) (A) (A) (A) (A) (A) (A) (A) (A) (A)
                 (A) (A) (A) (A) (A) (A) (A) (A) (A) (A) (A) (A)
                 (A) (A) (A) (A) (A) (A) (A) (A) (A) (A) (A) (A)
                 (A) (A) (A) (A) (A) (A) (A) (A) (A) (A) (A) (A)
                 (A) (A) (A) (A) (A) (A) (A) (A) (A) (A) (A) (A)
                 (A) (A) (A) (A) (A) (A) (A) (A) (A) (A) (A) (A)
                 (A) (A) (A) (A) (A) (A) (A) (A) (A) (A) (A) (A)
                 (A) (A) (A) (A) (A) (A) (A) (A) (A) (A) (A) (A)
                 (A) (A) (A) (A)
 The electronic state is 1-A.
 Alpha  occ. eigenvalues --  -88.87962 -88.87962 -88.87916 -88.87916 -10.21628
 Alpha  occ. eigenvalues --  -10.21628 -10.21613 -10.21613 -10.21132 -10.21132
 Alpha  occ. eigenvalues --  -10.21078 -10.21078 -10.19884 -10.19884 -10.19875
 Alpha  occ. eigenvalues --  -10.19875 -10.18887 -10.18887 -10.18875 -10.18875
 Alpha  occ. eigenvalues --  -10.18597 -10.18596 -10.18561 -10.18561 -10.18282
 Alpha  occ. eigenvalues --  -10.18282 -10.18281 -10.18281 -10.18150 -10.18150
 Alpha  occ. eigenvalues --  -10.18121 -10.18121  -7.96617  -7.96617  -7.96568
 Alpha  occ. eigenvalues --   -7.96568  -5.92946  -5.92946  -5.92899  -5.92899
 Alpha  occ. eigenvalues --   -5.92587  -5.92587  -5.92538  -5.92538  -5.92115
 Alpha  occ. eigenvalues --   -5.92115  -5.92066  -5.92066  -0.92132  -0.92132
 Alpha  occ. eigenvalues --   -0.88051  -0.88051  -0.83980  -0.83980  -0.81930
 Alpha  occ. eigenvalues --   -0.81930  -0.77600  -0.77600  -0.77198  -0.77198
 Alpha  occ. eigenvalues --   -0.73795  -0.73795  -0.71968  -0.71968  -0.69850
 Alpha  occ. eigenvalues --   -0.69850  -0.64450  -0.64450  -0.61376  -0.61376
 Alpha  occ. eigenvalues --   -0.59211  -0.59211  -0.58307  -0.58307  -0.56826
 Alpha  occ. eigenvalues --   -0.56826  -0.51268  -0.51268  -0.50060  -0.50060
 Alpha  occ. eigenvalues --   -0.48940  -0.48940  -0.47342  -0.47342  -0.45498
 Alpha  occ. eigenvalues --   -0.45498  -0.45340  -0.45340  -0.43835  -0.43835
 Alpha  occ. eigenvalues --   -0.43302  -0.43301  -0.42955  -0.42952  -0.40674
 Alpha  occ. eigenvalues --   -0.40674  -0.40344  -0.40344  -0.39026  -0.39024
 Alpha  occ. eigenvalues --   -0.37135  -0.37135  -0.36478  -0.36478  -0.36044
 Alpha  occ. eigenvalues --   -0.36044  -0.34593  -0.34593  -0.34395  -0.34394
 Alpha  occ. eigenvalues --   -0.34386  -0.34385  -0.32545  -0.32539  -0.28715
 Alpha  occ. eigenvalues --   -0.28712  -0.28049  -0.28049  -0.24815  -0.24815
 Alpha  occ. eigenvalues --   -0.22711  -0.22707  -0.20978  -0.20971
 Alpha virt. eigenvalues --   -0.05474  -0.05472  -0.02209  -0.02184  -0.01442
 Alpha virt. eigenvalues --   -0.01440  -0.00374  -0.00354   0.00679   0.00687
 Alpha virt. eigenvalues --    0.01984   0.01990   0.04168   0.04169   0.04292
 Alpha virt. eigenvalues --    0.04306   0.05065   0.05071   0.06391   0.06410
 Alpha virt. eigenvalues --    0.07512   0.07573   0.08023   0.08046   0.08504
 Alpha virt. eigenvalues --    0.08520   0.11412   0.11413   0.12283   0.12337
 Alpha virt. eigenvalues --    0.13015   0.13163   0.13246   0.13279   0.13331
 Alpha virt. eigenvalues --    0.13440   0.14150   0.14174   0.16002   0.16038
 Alpha virt. eigenvalues --    0.16306   0.16346   0.17524   0.18194   0.19369
 Alpha virt. eigenvalues --    0.19848   0.20833   0.20839   0.23160   0.23164
 Alpha virt. eigenvalues --    0.23314   0.23323   0.24475   0.24491   0.27039
 Alpha virt. eigenvalues --    0.27056   0.27709   0.27715   0.27825   0.27830
 Alpha virt. eigenvalues --    0.28578   0.28582   0.29146   0.29147   0.29618
 Alpha virt. eigenvalues --    0.29629   0.33028   0.33043   0.34618   0.34621
 Alpha virt. eigenvalues --    0.35992   0.35997   0.37296   0.37311   0.37599
 Alpha virt. eigenvalues --    0.37608   0.38368   0.38380   0.38948   0.38954
 Alpha virt. eigenvalues --    0.39031   0.39043   0.39919   0.39938   0.40282
 Alpha virt. eigenvalues --    0.40286   0.40760   0.40771   0.41791   0.41794
 Alpha virt. eigenvalues --    0.42244   0.42277   0.42669   0.42676   0.42818
 Alpha virt. eigenvalues --    0.42819   0.44266   0.44269   0.44605   0.44627
 Alpha virt. eigenvalues --    0.44748   0.44751   0.45541   0.45546   0.45725
 Alpha virt. eigenvalues --    0.45817   0.45956   0.45971   0.46014   0.46014
 Alpha virt. eigenvalues --    0.48539   0.48545   0.49456   0.49463   0.49613
 Alpha virt. eigenvalues --    0.49628   0.50903   0.50942   0.51761   0.51783
 Alpha virt. eigenvalues --    0.53407   0.53408   0.54960   0.54969   0.56452
 Alpha virt. eigenvalues --    0.56463   0.57306   0.57319   0.58203   0.58212
 Alpha virt. eigenvalues --    0.58832   0.58849   0.59230   0.59242   0.59572
 Alpha virt. eigenvalues --    0.59577   0.60052   0.60054   0.60488   0.60492
 Alpha virt. eigenvalues --    0.60574   0.60578   0.61790   0.61801   0.62200
 Alpha virt. eigenvalues --    0.62208   0.63768   0.63809   0.63825   0.63864
 Alpha virt. eigenvalues --    0.64803   0.64808   0.66252   0.66271   0.69734
 Alpha virt. eigenvalues --    0.69746   0.70358   0.70392   0.72026   0.72030
 Alpha virt. eigenvalues --    0.72405   0.72405   0.72926   0.72928   0.73308
 Alpha virt. eigenvalues --    0.73309   0.73802   0.73812   0.74779   0.74823
 Alpha virt. eigenvalues --    0.75949   0.75961   0.76718   0.76767   0.77662
 Alpha virt. eigenvalues --    0.77670   0.79001   0.79089   0.80298   0.80300
 Alpha virt. eigenvalues --    0.80330   0.80359   0.82001   0.82010   0.83382
 Alpha virt. eigenvalues --    0.83388   0.84367   0.84374   0.84814   0.84830
 Alpha virt. eigenvalues --    0.85911   0.85924   0.86135   0.86183   0.88434
 Alpha virt. eigenvalues --    0.88565   0.89072   0.89077   0.90450   0.90455
 Alpha virt. eigenvalues --    0.90905   0.90927   0.92432   0.92450   0.93626
 Alpha virt. eigenvalues --    0.93671   0.96125   0.96150   0.96887   0.96899
 Alpha virt. eigenvalues --    0.96910   0.96911   0.98851   0.98858   0.99560
 Alpha virt. eigenvalues --    0.99577   1.00425   1.00444   1.01840   1.01845
 Alpha virt. eigenvalues --    1.02994   1.03001   1.06216   1.06219   1.06534
 Alpha virt. eigenvalues --    1.06549   1.07697   1.07699   1.09070   1.09092
 Alpha virt. eigenvalues --    1.09110   1.09137   1.09517   1.09520   1.10885
 Alpha virt. eigenvalues --    1.10888   1.11438   1.11443   1.15899   1.15912
 Alpha virt. eigenvalues --    1.18417   1.18447   1.20425   1.20440   1.21986
 Alpha virt. eigenvalues --    1.21994   1.22468   1.22490   1.24703   1.24722
 Alpha virt. eigenvalues --    1.28112   1.28130   1.28689   1.28783   1.29121
 Alpha virt. eigenvalues --    1.29121   1.34948   1.34967   1.38858   1.38864
 Alpha virt. eigenvalues --    1.40729   1.40735   1.41640   1.41641   1.42938
 Alpha virt. eigenvalues --    1.42939   1.44347   1.44354   1.44969   1.44969
 Alpha virt. eigenvalues --    1.47300   1.47300   1.47928   1.47929   1.49097
 Alpha virt. eigenvalues --    1.49098   1.52541   1.52541   1.54001   1.54007
 Alpha virt. eigenvalues --    1.54106   1.54110   1.56082   1.56086   1.56310
 Alpha virt. eigenvalues --    1.56565   1.58051   1.58059   1.59032   1.59062
 Alpha virt. eigenvalues --    1.59795   1.59800   1.60617   1.60767   1.61169
 Alpha virt. eigenvalues --    1.61172   1.61526   1.61533   1.62312   1.62339
 Alpha virt. eigenvalues --    1.63143   1.63172   1.67222   1.67329   1.69451
 Alpha virt. eigenvalues --    1.69453   1.70512   1.70559   1.72106   1.72107
 Alpha virt. eigenvalues --    1.73013   1.73014   1.73537   1.73539   1.74719
 Alpha virt. eigenvalues --    1.74720   1.75776   1.75776   1.80350   1.80380
 Alpha virt. eigenvalues --    1.80593   1.80610   1.81716   1.81731   1.82506
 Alpha virt. eigenvalues --    1.82506   1.83411   1.83415   1.83961   1.83979
 Alpha virt. eigenvalues --    1.84390   1.84390   1.86849   1.86850   1.88932
 Alpha virt. eigenvalues --    1.88936   1.89518   1.89520   1.89591   1.89591
 Alpha virt. eigenvalues --    1.89982   1.89987   1.90965   1.90991   1.91081
 Alpha virt. eigenvalues --    1.91084   1.93814   1.93833   1.93957   1.93960
 Alpha virt. eigenvalues --    1.94038   1.94059   1.96301   1.96305   1.96344
 Alpha virt. eigenvalues --    1.96350   1.99031   1.99062   1.99644   1.99644
 Alpha virt. eigenvalues --    2.00210   2.00213   2.01270   2.01275   2.02599
 Alpha virt. eigenvalues --    2.02603   2.03597   2.03603   2.06668   2.06672
 Alpha virt. eigenvalues --    2.08201   2.08201   2.11097   2.11124   2.12171
 Alpha virt. eigenvalues --    2.12171   2.14269   2.14269   2.22580   2.22590
 Alpha virt. eigenvalues --    2.25312   2.25313   2.26459   2.26459   2.26759
 Alpha virt. eigenvalues --    2.26766   2.27791   2.27807   2.32806   2.32808
 Alpha virt. eigenvalues --    2.32955   2.32956   2.33028   2.33031   2.33433
 Alpha virt. eigenvalues --    2.33435   2.34155   2.34157   2.35913   2.35916
 Alpha virt. eigenvalues --    2.37615   2.37618   2.40624   2.40627   2.47994
 Alpha virt. eigenvalues --    2.48001   2.52145   2.52147   2.53712   2.53730
 Alpha virt. eigenvalues --    2.55637   2.55652   2.56495   2.56496   2.57411
 Alpha virt. eigenvalues --    2.57413   2.60012   2.60013   2.60354   2.60354
 Alpha virt. eigenvalues --    2.61537   2.61544   2.61749   2.61752   2.62306
 Alpha virt. eigenvalues --    2.62308   2.63856   2.63858   2.64601   2.64601
 Alpha virt. eigenvalues --    2.65276   2.65277   2.66048   2.66049   2.69055
 Alpha virt. eigenvalues --    2.69064   2.69079   2.69081   2.69146   2.69152
 Alpha virt. eigenvalues --    2.70540   2.70595   2.71841   2.71850   2.73681
 Alpha virt. eigenvalues --    2.73686   2.77518   2.77522   2.80142   2.80143
 Alpha virt. eigenvalues --    2.81501   2.81502   2.81796   2.81808   2.82353
 Alpha virt. eigenvalues --    2.82375   2.83330   2.83332   2.83738   2.83740
 Alpha virt. eigenvalues --    2.87817   2.87818   2.91865   2.91867   2.92527
 Alpha virt. eigenvalues --    2.92557   2.97183   2.97193   3.04131   3.04141
 Alpha virt. eigenvalues --    3.04455   3.04458   3.07453   3.07453   3.10538
 Alpha virt. eigenvalues --    3.10538   3.15664   3.15673   3.17342   3.17349
 Alpha virt. eigenvalues --    3.23528   3.23532   3.24427   3.24432   3.29825
 Alpha virt. eigenvalues --    3.29826   3.30427   3.30429   3.32060   3.32060
 Alpha virt. eigenvalues --    3.34552   3.34552   3.38877   3.38885   3.42788
 Alpha virt. eigenvalues --    3.42788   3.44739   3.44745   3.45922   3.45930
 Alpha virt. eigenvalues --    3.50655   3.50657   3.54716   3.54719   3.55981
 Alpha virt. eigenvalues --    3.55982   3.62810   3.62813   3.76125   3.76129
 Alpha virt. eigenvalues --    3.82351   3.82360   3.98732   3.98733   4.00575
 Alpha virt. eigenvalues --    4.00576   4.01743   4.01743   4.03939   4.03942
 Alpha virt. eigenvalues --    4.11638   4.11643   4.11996   4.11997   4.19943
 Alpha virt. eigenvalues --    4.19947   4.55109   4.55116   4.79854   4.79854
 Alpha virt. eigenvalues --    4.79981   4.79982   7.81288   7.81303   7.84126
 Alpha virt. eigenvalues --    7.84129  17.19633  17.19975  17.21163  17.21359
 Alpha virt. eigenvalues --   17.43882  17.43901  17.51361  17.51370  17.52459
 Alpha virt. eigenvalues --   17.52468  17.53551  17.53561  23.35528  23.35541
 Alpha virt. eigenvalues --   23.53967  23.53969  23.69080  23.69083  23.85811
 Alpha virt. eigenvalues --   23.85813  23.85979  23.85981  23.90312  23.90312
 Alpha virt. eigenvalues --   23.92242  23.92242  23.98294  23.98294  24.01273
 Alpha virt. eigenvalues --   24.01273  24.03906  24.03906  24.07437  24.07437
 Alpha virt. eigenvalues --   24.07560  24.07560  24.14810  24.14811  24.14921
 Alpha virt. eigenvalues --   24.14922 188.92683 188.92702 188.95561 188.95565
          Condensed to atoms (all electrons):
               1          2          3          4          5          6
     1  S   15.373238   0.009492  -0.061566   0.005897  -0.000100   0.009398
     2  S    0.009492  15.364130  -0.000171  -0.000038   0.000327   0.002409
     3  C   -0.061566  -0.000171   4.862661   0.512495  -0.040661  -0.053510
     4  C    0.005897  -0.000038   0.512495   4.880806   0.492420  -0.051812
     5  C   -0.000100   0.000327  -0.040661   0.492420   4.878169   0.511937
     6  C    0.009398   0.002409  -0.053510  -0.051812   0.511937   4.872772
     7  C    0.002359   0.009405  -0.000001   0.000000  -0.000000  -0.000001
     8  C    0.000327  -0.000116   0.000000  -0.000000   0.000000  -0.000000
     9  C   -0.000039   0.005895  -0.000000   0.000000  -0.000000   0.000000
    10  C   -0.000172  -0.061380   0.000000  -0.000000   0.000000  -0.000000
    11  C    0.008693   0.307221   0.000033  -0.000002   0.000002  -0.000302
    12  C   -0.070710  -0.088035  -0.000512   0.000027  -0.000018   0.000093
    13  C    0.316240  -0.092074  -0.000471  -0.000023  -0.000614   0.011520
    14  C   -0.092110   0.317640   0.017234  -0.001028   0.013308  -0.088831
    15  C   -0.088287  -0.070496   0.006428  -0.049895  -0.030030   0.486688
    16  C    0.305996   0.008611   0.443545  -0.048025  -0.054645  -0.045454
    17  H   -0.003206   0.000023   0.419503  -0.037211   0.007352  -0.000573
    18  H    0.000110  -0.000002   0.007015  -0.042091   0.411178  -0.037836
    19  H   -0.000642   0.003270  -0.000894   0.007524  -0.039251   0.419480
    20  H    0.003292  -0.000638  -0.000003   0.000000  -0.000000   0.000000
    21  H   -0.000002   0.000109   0.000000  -0.000000  -0.000000   0.000000
    22  H   -0.000003  -0.000370  -0.000000   0.000000   0.000000   0.000000
    23  H    0.000022  -0.003166   0.000000  -0.000000   0.000000  -0.000000
    24  H   -0.000372  -0.000003  -0.041404   0.413855  -0.042775   0.007643
    25  S    0.000001   0.000009  -0.000000   0.000000   0.000000   0.000002
    26  S    0.000000   0.000001  -0.000000   0.000000  -0.000000  -0.000000
    27  C   -0.000000  -0.000000   0.000000  -0.000000   0.000000  -0.000000
    28  C   -0.000000   0.000000   0.000000  -0.000000  -0.000000  -0.000000
    29  C    0.000000   0.000000  -0.000000   0.000000   0.000000  -0.000000
    30  C    0.000000   0.000000  -0.000000  -0.000000   0.000000  -0.000000
    31  C   -0.000000   0.000002  -0.000000   0.000000   0.000000   0.000000
    32  C   -0.000000   0.000000  -0.000000   0.000000  -0.000000   0.000000
    33  C    0.000000   0.000000   0.000000  -0.000000   0.000000   0.000000
    34  C   -0.000000  -0.000000   0.000000   0.000000  -0.000000  -0.000000
    35  C    0.000000   0.000000   0.000000   0.000000  -0.000000  -0.000000
    36  C    0.000000   0.000001  -0.000000  -0.000000   0.000000   0.000000
    37  C   -0.000000  -0.000000   0.000000  -0.000000   0.000000  -0.000000
    38  C   -0.000000  -0.000000   0.000000  -0.000000   0.000000   0.000000
    39  C   -0.000000  -0.000000   0.000000   0.000000  -0.000000  -0.000000
    40  C   -0.000000  -0.000000   0.000000   0.000000  -0.000000  -0.000000
    41  H    0.000000   0.000000   0.000000   0.000000   0.000000   0.000000
    42  H   -0.000000  -0.000000   0.000000   0.000000   0.000000  -0.000000
    43  H    0.000000   0.000000  -0.000000  -0.000000   0.000000   0.000000
    44  H    0.000000   0.000001  -0.000000  -0.000000   0.000000   0.000000
    45  H   -0.000000  -0.000000  -0.000000   0.000000  -0.000000  -0.000000
    46  H    0.000000   0.000000   0.000000  -0.000000   0.000000   0.000000
    47  H   -0.000000  -0.000000  -0.000000   0.000000   0.000000   0.000000
    48  H   -0.000000   0.000000  -0.000000  -0.000000  -0.000000  -0.000000
               7          8          9         10         11         12
     1  S    0.002359   0.000327  -0.000039  -0.000172   0.008693  -0.070710
     2  S    0.009405  -0.000116   0.005895  -0.061380   0.307221  -0.088035
     3  C   -0.000001   0.000000  -0.000000   0.000000   0.000033  -0.000512
     4  C    0.000000  -0.000000   0.000000  -0.000000  -0.000002   0.000027
     5  C   -0.000000   0.000000  -0.000000   0.000000   0.000002  -0.000018
     6  C   -0.000001  -0.000000   0.000000  -0.000000  -0.000302   0.000093
     7  C    4.877000   0.511260  -0.051620  -0.053873  -0.044850   0.485483
     8  C    0.511260   4.880068   0.492220  -0.040412  -0.054806  -0.029708
     9  C   -0.051620   0.492220   4.880821   0.512320  -0.047757  -0.050260
    10  C   -0.053873  -0.040412   0.512320   4.861277   0.443289   0.007053
    11  C   -0.044850  -0.054806  -0.047757   0.443289   5.388865   0.411644
    12  C    0.485483  -0.029708  -0.050260   0.007053   0.411644   4.951058
    13  C   -0.089611   0.013358  -0.001061   0.017370  -0.097204   0.392893
    14  C    0.011576  -0.000615  -0.000021  -0.000514  -0.086313  -0.014515
    15  C    0.000096  -0.000018   0.000027  -0.000510   0.003482   0.021067
    16  C   -0.000301   0.000002  -0.000002   0.000034  -0.000008   0.003429
    17  H   -0.000000   0.000000  -0.000000   0.000000   0.000001  -0.000009
    18  H    0.000000  -0.000000  -0.000000   0.000000  -0.000000  -0.000000
    19  H    0.000000  -0.000000   0.000000  -0.000003  -0.000107   0.000012
    20  H    0.419717  -0.039671   0.007567  -0.000915   0.008954  -0.045780
    21  H   -0.038206   0.411163  -0.041972   0.007019   0.000276   0.007572
    22  H    0.007642  -0.042881   0.413857  -0.041210   0.008881  -0.000338
    23  H   -0.000565   0.007337  -0.037167   0.419328  -0.047115   0.007242
    24  H    0.000000   0.000000   0.000000  -0.000000  -0.000000  -0.000000
    25  S    0.000000   0.000000   0.000000  -0.000000  -0.000000  -0.000000
    26  S    0.000000   0.000000  -0.000000  -0.000000  -0.000000  -0.000000
    27  C   -0.000000   0.000000  -0.000000  -0.000000   0.000000  -0.000000
    28  C   -0.000000   0.000000  -0.000000  -0.000000   0.000000  -0.000000
    29  C    0.000000  -0.000000   0.000000   0.000000  -0.000000   0.000000
    30  C    0.000000   0.000000  -0.000000  -0.000000  -0.000000  -0.000000
    31  C   -0.000000  -0.000000  -0.000000  -0.000000  -0.000000  -0.000000
    32  C    0.000000   0.000000  -0.000000   0.000000  -0.000000  -0.000000
    33  C   -0.000000   0.000000  -0.000000  -0.000000   0.000000   0.000000
    34  C   -0.000000  -0.000000   0.000000   0.000000   0.000000   0.000000
    35  C    0.000000   0.000000  -0.000000  -0.000000   0.000000  -0.000000
    36  C   -0.000000  -0.000000   0.000000   0.000000  -0.000000  -0.000000
    37  C   -0.000000  -0.000000   0.000000   0.000000  -0.000000   0.000000
    38  C   -0.000000   0.000000  -0.000000   0.000000   0.000000   0.000000
    39  C   -0.000000   0.000000  -0.000000  -0.000000   0.000000  -0.000000
    40  C   -0.000000  -0.000000   0.000000   0.000000  -0.000000   0.000000
    41  H   -0.000000   0.000000   0.000000  -0.000000  -0.000000  -0.000000
    42  H   -0.000000  -0.000000   0.000000   0.000000  -0.000000   0.000000
    43  H    0.000000   0.000000  -0.000000  -0.000000   0.000000  -0.000000
    44  H    0.000000   0.000000  -0.000000  -0.000000   0.000000  -0.000000
    45  H   -0.000000   0.000000   0.000000   0.000000  -0.000000  -0.000000
    46  H    0.000000   0.000000  -0.000000  -0.000000   0.000000   0.000000
    47  H   -0.000000   0.000000   0.000000   0.000000  -0.000000  -0.000000
    48  H   -0.000000   0.000000  -0.000000  -0.000000   0.000000  -0.000000
              13         14         15         16         17         18
     1  S    0.316240  -0.092110  -0.088287   0.305996  -0.003206   0.000110
     2  S   -0.092074   0.317640  -0.070496   0.008611   0.000023  -0.000002
     3  C   -0.000471   0.017234   0.006428   0.443545   0.419503   0.007015
     4  C   -0.000023  -0.001028  -0.049895  -0.048025  -0.037211  -0.042091
     5  C   -0.000614   0.013308  -0.030030  -0.054645   0.007352   0.411178
     6  C    0.011520  -0.088831   0.486688  -0.045454  -0.000573  -0.037836
     7  C   -0.089611   0.011576   0.000096  -0.000301  -0.000000   0.000000
     8  C    0.013358  -0.000615  -0.000018   0.000002   0.000000  -0.000000
     9  C   -0.001061  -0.000021   0.000027  -0.000002  -0.000000  -0.000000
    10  C    0.017370  -0.000514  -0.000510   0.000034   0.000000   0.000000
    11  C   -0.097204  -0.086313   0.003482  -0.000008   0.000001  -0.000000
    12  C    0.392893  -0.014515   0.021067   0.003429  -0.000009  -0.000000
    13  C    5.460504   0.363403  -0.014511  -0.086779  -0.000117   0.000016
    14  C    0.363403   5.456397   0.393336  -0.096414  -0.000334  -0.000470
    15  C   -0.014511   0.393336   4.947925   0.412386   0.007232   0.007539
    16  C   -0.086779  -0.096414   0.412386   5.390601  -0.047567   0.000277
    17  H   -0.000117  -0.000334   0.007232  -0.047567   0.566139  -0.000322
    18  H    0.000016  -0.000470   0.007539   0.000277  -0.000322   0.572162
    19  H    0.000094  -0.011923  -0.045397   0.008905   0.000064  -0.007630
    20  H   -0.012047   0.000092   0.000013  -0.000108   0.000000   0.000000
    21  H   -0.000469   0.000016  -0.000000  -0.000000  -0.000000   0.000000
    22  H   -0.000002   0.000010  -0.000000  -0.000000   0.000000   0.000000
    23  H   -0.000333  -0.000117  -0.000009   0.000001   0.000000  -0.000000
    24  H    0.000010  -0.000002  -0.000338   0.008904  -0.007787  -0.007477
    25  S   -0.000000  -0.000000   0.000001   0.000000  -0.000000  -0.000000
    26  S   -0.000000  -0.000000   0.000000   0.000000  -0.000000  -0.000000
    27  C    0.000000   0.000000   0.000000  -0.000000   0.000000   0.000000
    28  C   -0.000000   0.000000   0.000000  -0.000000   0.000000   0.000000
    29  C    0.000000  -0.000000  -0.000000   0.000000   0.000000   0.000000
    30  C   -0.000000  -0.000000  -0.000000   0.000000  -0.000000  -0.000000
    31  C    0.000000  -0.000000   0.000000  -0.000000   0.000000  -0.000000
    32  C    0.000000   0.000000   0.000000  -0.000000   0.000000  -0.000000
    33  C   -0.000000  -0.000000  -0.000000   0.000000   0.000000   0.000000
    34  C    0.000000   0.000000  -0.000000   0.000000  -0.000000  -0.000000
    35  C    0.000000  -0.000000  -0.000000  -0.000000  -0.000000  -0.000000
    36  C    0.000000   0.000000  -0.000000  -0.000000   0.000000   0.000000
    37  C    0.000000   0.000000   0.000000  -0.000000   0.000000   0.000000
    38  C   -0.000000   0.000000   0.000000   0.000000   0.000000   0.000000
    39  C    0.000000   0.000000  -0.000000  -0.000000  -0.000000  -0.000000
    40  C    0.000000  -0.000000  -0.000000   0.000000  -0.000000  -0.000000
    41  H    0.000000  -0.000000  -0.000000  -0.000000  -0.000000   0.000000
    42  H    0.000000  -0.000000  -0.000000  -0.000000   0.000000  -0.000000
    43  H   -0.000000  -0.000000   0.000000   0.000000   0.000000   0.000000
    44  H   -0.000000  -0.000000  -0.000000   0.000000   0.000000  -0.000000
    45  H    0.000000   0.000000   0.000000  -0.000000  -0.000000  -0.000000
    46  H   -0.000000  -0.000000  -0.000000   0.000000  -0.000000   0.000000
    47  H    0.000000   0.000000   0.000000  -0.000000   0.000000  -0.000000
    48  H   -0.000000   0.000000   0.000000   0.000000  -0.000000   0.000000
              19         20         21         22         23         24
     1  S   -0.000642   0.003292  -0.000002  -0.000003   0.000022  -0.000372
     2  S    0.003270  -0.000638   0.000109  -0.000370  -0.003166  -0.000003
     3  C   -0.000894  -0.000003   0.000000  -0.000000   0.000000  -0.041404
     4  C    0.007524   0.000000  -0.000000   0.000000  -0.000000   0.413855
     5  C   -0.039251  -0.000000  -0.000000   0.000000   0.000000  -0.042775
     6  C    0.419480   0.000000   0.000000   0.000000  -0.000000   0.007643
     7  C    0.000000   0.419717  -0.038206   0.007642  -0.000565   0.000000
     8  C   -0.000000  -0.039671   0.411163  -0.042881   0.007337   0.000000
     9  C    0.000000   0.007567  -0.041972   0.413857  -0.037167   0.000000
    10  C   -0.000003  -0.000915   0.007019  -0.041210   0.419328  -0.000000
    11  C   -0.000107   0.008954   0.000276   0.008881  -0.047115  -0.000000
    12  C    0.000012  -0.045780   0.007572  -0.000338   0.007242  -0.000000
    13  C    0.000094  -0.012047  -0.000469  -0.000002  -0.000333   0.000010
    14  C   -0.011923   0.000092   0.000016   0.000010  -0.000117  -0.000002
    15  C   -0.045397   0.000013  -0.000000  -0.000000  -0.000009  -0.000338
    16  C    0.008905  -0.000108  -0.000000  -0.000000   0.000001   0.008904
    17  H    0.000064   0.000000  -0.000000   0.000000   0.000000  -0.007787
    18  H   -0.007630   0.000000   0.000000   0.000000  -0.000000  -0.007477
    19  H    0.569763   0.000000   0.000000   0.000000   0.000000  -0.000307
    20  H    0.000000   0.572217  -0.007675  -0.000309   0.000064   0.000000
    21  H    0.000000  -0.007675   0.573024  -0.007485  -0.000321   0.000000
    22  H    0.000000  -0.000309  -0.007485   0.571715  -0.007753  -0.000000
    23  H    0.000000   0.000064  -0.000321  -0.007753   0.564636   0.000000
    24  H   -0.000307   0.000000   0.000000  -0.000000   0.000000   0.571925
    25  S    0.000001   0.000000  -0.000000   0.000000   0.000000   0.000000
    26  S    0.000000   0.000000  -0.000000  -0.000000   0.000000   0.000000
    27  C   -0.000000  -0.000000   0.000000  -0.000000  -0.000000  -0.000000
    28  C   -0.000000  -0.000000   0.000000  -0.000000   0.000000  -0.000000
    29  C    0.000000   0.000000  -0.000000   0.000000   0.000000   0.000000
    30  C    0.000000   0.000000  -0.000000  -0.000000  -0.000000   0.000000
    31  C    0.000000   0.000000  -0.000000  -0.000000   0.000000   0.000000
    32  C    0.000000   0.000000   0.000000  -0.000000   0.000000   0.000000
    33  C   -0.000000  -0.000000   0.000000  -0.000000   0.000000  -0.000000
    34  C   -0.000000  -0.000000   0.000000  -0.000000   0.000000   0.000000
    35  C    0.000000   0.000000  -0.000000   0.000000  -0.000000   0.000000
    36  C   -0.000000   0.000000  -0.000000   0.000000  -0.000000  -0.000000
    37  C   -0.000000  -0.000000  -0.000000   0.000000  -0.000000  -0.000000
    38  C   -0.000000  -0.000000   0.000000  -0.000000   0.000000  -0.000000
    39  C   -0.000000  -0.000000   0.000000  -0.000000  -0.000000   0.000000
    40  C    0.000000   0.000000  -0.000000   0.000000  -0.000000   0.000000
    41  H    0.000000   0.000000  -0.000000  -0.000000   0.000000   0.000000
    42  H    0.000000   0.000000  -0.000000   0.000000  -0.000000   0.000000
    43  H   -0.000000  -0.000000   0.000000  -0.000000   0.000000  -0.000000
    44  H    0.000000  -0.000000   0.000000  -0.000000   0.000000  -0.000000
    45  H   -0.000000   0.000000  -0.000000   0.000000   0.000000   0.000000
    46  H   -0.000000  -0.000000   0.000000  -0.000000   0.000000  -0.000000
    47  H    0.000000   0.000000   0.000000  -0.000000  -0.000000  -0.000000
    48  H   -0.000000  -0.000000   0.000000   0.000000  -0.000000  -0.000000
              25         26         27         28         29         30
     1  S    0.000001   0.000000  -0.000000  -0.000000   0.000000   0.000000
     2  S    0.000009   0.000001  -0.000000   0.000000   0.000000   0.000000
     3  C   -0.000000  -0.000000   0.000000   0.000000  -0.000000  -0.000000
     4  C    0.000000   0.000000  -0.000000  -0.000000   0.000000  -0.000000
     5  C    0.000000  -0.000000   0.000000  -0.000000   0.000000   0.000000
     6  C    0.000002  -0.000000  -0.000000  -0.000000  -0.000000  -0.000000
     7  C    0.000000   0.000000  -0.000000  -0.000000   0.000000   0.000000
     8  C    0.000000   0.000000   0.000000   0.000000  -0.000000   0.000000
     9  C    0.000000  -0.000000  -0.000000  -0.000000   0.000000  -0.000000
    10  C   -0.000000  -0.000000  -0.000000  -0.000000   0.000000  -0.000000
    11  C   -0.000000  -0.000000   0.000000   0.000000  -0.000000  -0.000000
    12  C   -0.000000  -0.000000  -0.000000  -0.000000   0.000000  -0.000000
    13  C   -0.000000  -0.000000   0.000000  -0.000000   0.000000  -0.000000
    14  C   -0.000000  -0.000000   0.000000   0.000000  -0.000000  -0.000000
    15  C    0.000001   0.000000   0.000000   0.000000  -0.000000  -0.000000
    16  C    0.000000   0.000000  -0.000000  -0.000000   0.000000   0.000000
    17  H   -0.000000  -0.000000   0.000000   0.000000   0.000000  -0.000000
    18  H   -0.000000  -0.000000   0.000000   0.000000   0.000000  -0.000000
    19  H    0.000001   0.000000  -0.000000  -0.000000   0.000000   0.000000
    20  H    0.000000   0.000000  -0.000000  -0.000000   0.000000   0.000000
    21  H   -0.000000  -0.000000   0.000000   0.000000  -0.000000  -0.000000
    22  H    0.000000  -0.000000  -0.000000  -0.000000   0.000000  -0.000000
    23  H    0.000000   0.000000  -0.000000   0.000000   0.000000  -0.000000
    24  H    0.000000   0.000000  -0.000000  -0.000000   0.000000   0.000000
    25  S   15.364128   0.009492  -0.061380   0.005895  -0.000116   0.009405
    26  S    0.009492  15.373241  -0.000172  -0.000039   0.000327   0.002359
    27  C   -0.061380  -0.000172   4.861277   0.512321  -0.040413  -0.053872
    28  C    0.005895  -0.000039   0.512321   4.880820   0.492220  -0.051621
    29  C   -0.000116   0.000327  -0.040413   0.492220   4.880068   0.511261
    30  C    0.009405   0.002359  -0.053872  -0.051621   0.511261   4.876999
    31  C    0.002409   0.009398  -0.000000   0.000000  -0.000000  -0.000001
    32  C    0.000327  -0.000100   0.000000  -0.000000   0.000000  -0.000000
    33  C   -0.000038   0.005898  -0.000000   0.000000  -0.000000   0.000000
    34  C   -0.000171  -0.061566   0.000000  -0.000000   0.000000  -0.000001
    35  C    0.008611   0.305995   0.000034  -0.000002   0.000002  -0.000301
    36  C   -0.070496  -0.088287  -0.000510   0.000027  -0.000018   0.000096
    37  C    0.317640  -0.092111  -0.000514  -0.000021  -0.000615   0.011576
    38  C   -0.092073   0.316241   0.017370  -0.001061   0.013358  -0.089611
    39  C   -0.088035  -0.070710   0.007052  -0.050259  -0.029709   0.485484
    40  C    0.307221   0.008693   0.443290  -0.047758  -0.054805  -0.044851
    41  H   -0.003166   0.000022   0.419328  -0.037167   0.007337  -0.000565
    42  H    0.000109  -0.000002   0.007019  -0.041972   0.411163  -0.038206
    43  H   -0.000638   0.003292  -0.000915   0.007567  -0.039671   0.419717
    44  H    0.003270  -0.000642  -0.000003   0.000000  -0.000000   0.000000
    45  H   -0.000002   0.000110   0.000000  -0.000000  -0.000000   0.000000
    46  H   -0.000003  -0.000372  -0.000000   0.000000   0.000000   0.000000
    47  H    0.000023  -0.003206   0.000000  -0.000000   0.000000  -0.000000
    48  H   -0.000370  -0.000003  -0.041210   0.413857  -0.042882   0.007642
              31         32         33         34         35         36
     1  S   -0.000000  -0.000000   0.000000  -0.000000   0.000000   0.000000
     2  S    0.000002   0.000000   0.000000  -0.000000   0.000000   0.000001
     3  C   -0.000000  -0.000000   0.000000   0.000000   0.000000  -0.000000
     4  C    0.000000   0.000000  -0.000000   0.000000   0.000000  -0.000000
     5  C    0.000000  -0.000000   0.000000  -0.000000  -0.000000   0.000000
     6  C    0.000000   0.000000   0.000000  -0.000000  -0.000000   0.000000
     7  C   -0.000000   0.000000  -0.000000  -0.000000   0.000000  -0.000000
     8  C   -0.000000   0.000000   0.000000  -0.000000   0.000000  -0.000000
     9  C   -0.000000  -0.000000  -0.000000   0.000000  -0.000000   0.000000
    10  C   -0.000000   0.000000  -0.000000   0.000000  -0.000000   0.000000
    11  C   -0.000000  -0.000000   0.000000   0.000000   0.000000  -0.000000
    12  C   -0.000000  -0.000000   0.000000   0.000000  -0.000000  -0.000000
    13  C    0.000000   0.000000  -0.000000   0.000000   0.000000   0.000000
    14  C   -0.000000   0.000000  -0.000000   0.000000  -0.000000   0.000000
    15  C    0.000000   0.000000  -0.000000  -0.000000  -0.000000  -0.000000
    16  C   -0.000000  -0.000000   0.000000   0.000000  -0.000000  -0.000000
    17  H    0.000000   0.000000   0.000000  -0.000000  -0.000000   0.000000
    18  H   -0.000000  -0.000000   0.000000  -0.000000  -0.000000   0.000000
    19  H    0.000000   0.000000  -0.000000  -0.000000   0.000000  -0.000000
    20  H    0.000000   0.000000  -0.000000  -0.000000   0.000000   0.000000
    21  H   -0.000000   0.000000   0.000000   0.000000  -0.000000  -0.000000
    22  H   -0.000000  -0.000000  -0.000000  -0.000000   0.000000   0.000000
    23  H    0.000000   0.000000   0.000000   0.000000  -0.000000  -0.000000
    24  H    0.000000   0.000000  -0.000000   0.000000   0.000000  -0.000000
    25  S    0.002409   0.000327  -0.000038  -0.000171   0.008611  -0.070496
    26  S    0.009398  -0.000100   0.005898  -0.061566   0.305995  -0.088287
    27  C   -0.000000   0.000000  -0.000000   0.000000   0.000034  -0.000510
    28  C    0.000000  -0.000000   0.000000  -0.000000  -0.000002   0.000027
    29  C   -0.000000   0.000000  -0.000000   0.000000   0.000002  -0.000018
    30  C   -0.000001  -0.000000   0.000000  -0.000001  -0.000301   0.000096
    31  C    4.872773   0.511936  -0.051812  -0.053510  -0.045453   0.486687
    32  C    0.511936   4.878170   0.492420  -0.040660  -0.054645  -0.030029
    33  C   -0.051812   0.492420   4.880808   0.512494  -0.048025  -0.049896
    34  C   -0.053510  -0.040660   0.512494   4.862661   0.443544   0.006429
    35  C   -0.045453  -0.054645  -0.048025   0.443544   5.390601   0.412386
    36  C    0.486687  -0.030029  -0.049896   0.006429   0.412386   4.947927
    37  C   -0.088831   0.013308  -0.001028   0.017234  -0.096415   0.393335
    38  C    0.011520  -0.000614  -0.000023  -0.000471  -0.086779  -0.014510
    39  C    0.000093  -0.000018   0.000027  -0.000512   0.003429   0.021067
    40  C   -0.000302   0.000002  -0.000002   0.000033  -0.000008   0.003482
    41  H   -0.000000   0.000000  -0.000000   0.000000   0.000001  -0.000009
    42  H    0.000000  -0.000000  -0.000000   0.000000  -0.000000  -0.000000
    43  H    0.000000  -0.000000   0.000000  -0.000003  -0.000108   0.000013
    44  H    0.419480  -0.039251   0.007524  -0.000894   0.008905  -0.045397
    45  H   -0.037836   0.411178  -0.042091   0.007015   0.000277   0.007539
    46  H    0.007643  -0.042775   0.413855  -0.041404   0.008904  -0.000338
    47  H   -0.000573   0.007352  -0.037211   0.419503  -0.047567   0.007232
    48  H    0.000000   0.000000   0.000000  -0.000000  -0.000000  -0.000000
              37         38         39         40         41         42
     1  S   -0.000000  -0.000000  -0.000000  -0.000000   0.000000  -0.000000
     2  S   -0.000000  -0.000000  -0.000000  -0.000000   0.000000  -0.000000
     3  C    0.000000   0.000000   0.000000   0.000000   0.000000   0.000000
     4  C   -0.000000  -0.000000   0.000000   0.000000   0.000000   0.000000
     5  C    0.000000   0.000000  -0.000000  -0.000000   0.000000   0.000000
     6  C   -0.000000   0.000000  -0.000000  -0.000000   0.000000  -0.000000
     7  C   -0.000000  -0.000000  -0.000000  -0.000000  -0.000000  -0.000000
     8  C   -0.000000   0.000000   0.000000  -0.000000   0.000000  -0.000000
     9  C    0.000000  -0.000000  -0.000000   0.000000   0.000000   0.000000
    10  C    0.000000   0.000000  -0.000000   0.000000  -0.000000   0.000000
    11  C   -0.000000   0.000000   0.000000  -0.000000  -0.000000  -0.000000
    12  C    0.000000   0.000000  -0.000000   0.000000  -0.000000   0.000000
    13  C    0.000000  -0.000000   0.000000   0.000000   0.000000   0.000000
    14  C    0.000000   0.000000   0.000000  -0.000000  -0.000000  -0.000000
    15  C    0.000000   0.000000  -0.000000  -0.000000  -0.000000  -0.000000
    16  C   -0.000000   0.000000  -0.000000   0.000000  -0.000000  -0.000000
    17  H    0.000000   0.000000  -0.000000  -0.000000  -0.000000   0.000000
    18  H    0.000000   0.000000  -0.000000  -0.000000   0.000000  -0.000000
    19  H   -0.000000  -0.000000  -0.000000   0.000000   0.000000   0.000000
    20  H   -0.000000  -0.000000  -0.000000   0.000000   0.000000   0.000000
    21  H   -0.000000   0.000000   0.000000  -0.000000  -0.000000  -0.000000
    22  H    0.000000  -0.000000  -0.000000   0.000000  -0.000000   0.000000
    23  H   -0.000000   0.000000  -0.000000  -0.000000   0.000000  -0.000000
    24  H   -0.000000  -0.000000   0.000000   0.000000   0.000000   0.000000
    25  S    0.317640  -0.092073  -0.088035   0.307221  -0.003166   0.000109
    26  S   -0.092111   0.316241  -0.070710   0.008693   0.000022  -0.000002
    27  C   -0.000514   0.017370   0.007052   0.443290   0.419328   0.007019
    28  C   -0.000021  -0.001061  -0.050259  -0.047758  -0.037167  -0.041972
    29  C   -0.000615   0.013358  -0.029709  -0.054805   0.007337   0.411163
    30  C    0.011576  -0.089611   0.485484  -0.044851  -0.000565  -0.038206
    31  C   -0.088831   0.011520   0.000093  -0.000302  -0.000000   0.000000
    32  C    0.013308  -0.000614  -0.000018   0.000002   0.000000  -0.000000
    33  C   -0.001028  -0.000023   0.000027  -0.000002  -0.000000  -0.000000
    34  C    0.017234  -0.000471  -0.000512   0.000033   0.000000   0.000000
    35  C   -0.096415  -0.086779   0.003429  -0.000008   0.000001  -0.000000
    36  C    0.393335  -0.014510   0.021067   0.003482  -0.000009  -0.000000
    37  C    5.456399   0.363403  -0.014515  -0.086314  -0.000117   0.000016
    38  C    0.363403   5.460502   0.392894  -0.097203  -0.000333  -0.000469
    39  C   -0.014515   0.392894   4.951056   0.411644   0.007242   0.007572
    40  C   -0.086314  -0.097203   0.411644   5.388865  -0.047115   0.000276
    41  H   -0.000117  -0.000333   0.007242  -0.047115   0.564637  -0.000321
    42  H    0.000016  -0.000469   0.007572   0.000276  -0.000321   0.573024
    43  H    0.000092  -0.012047  -0.045780   0.008954   0.000064  -0.007675
    44  H   -0.011923   0.000094   0.000012  -0.000107   0.000000   0.000000
    45  H   -0.000470   0.000016  -0.000000  -0.000000  -0.000000   0.000000
    46  H   -0.000002   0.000010  -0.000000  -0.000000   0.000000   0.000000
    47  H   -0.000334  -0.000117  -0.000009   0.000001   0.000000  -0.000000
    48  H    0.000010  -0.000002  -0.000338   0.008881  -0.007753  -0.007485
              43         44         45         46         47         48
     1  S    0.000000   0.000000  -0.000000   0.000000  -0.000000  -0.000000
     2  S    0.000000   0.000001  -0.000000   0.000000  -0.000000   0.000000
     3  C   -0.000000  -0.000000  -0.000000   0.000000  -0.000000  -0.000000
     4  C   -0.000000  -0.000000   0.000000  -0.000000   0.000000  -0.000000
     5  C    0.000000   0.000000  -0.000000   0.000000   0.000000  -0.000000
     6  C    0.000000   0.000000  -0.000000   0.000000   0.000000  -0.000000
     7  C    0.000000   0.000000  -0.000000   0.000000  -0.000000  -0.000000
     8  C    0.000000   0.000000   0.000000   0.000000   0.000000   0.000000
     9  C   -0.000000  -0.000000   0.000000  -0.000000   0.000000  -0.000000
    10  C   -0.000000  -0.000000   0.000000  -0.000000   0.000000  -0.000000
    11  C    0.000000   0.000000  -0.000000   0.000000  -0.000000   0.000000
    12  C   -0.000000  -0.000000  -0.000000   0.000000  -0.000000  -0.000000
    13  C   -0.000000  -0.000000   0.000000  -0.000000   0.000000  -0.000000
    14  C   -0.000000  -0.000000   0.000000  -0.000000   0.000000   0.000000
    15  C    0.000000  -0.000000   0.000000  -0.000000   0.000000   0.000000
    16  C    0.000000   0.000000  -0.000000   0.000000  -0.000000   0.000000
    17  H    0.000000   0.000000  -0.000000  -0.000000   0.000000  -0.000000
    18  H    0.000000  -0.000000  -0.000000   0.000000  -0.000000   0.000000
    19  H   -0.000000   0.000000  -0.000000  -0.000000   0.000000  -0.000000
    20  H   -0.000000  -0.000000   0.000000  -0.000000   0.000000  -0.000000
    21  H    0.000000   0.000000  -0.000000   0.000000   0.000000   0.000000
    22  H   -0.000000  -0.000000   0.000000  -0.000000  -0.000000   0.000000
    23  H    0.000000   0.000000   0.000000   0.000000  -0.000000  -0.000000
    24  H   -0.000000  -0.000000   0.000000  -0.000000  -0.000000  -0.000000
    25  S   -0.000638   0.003270  -0.000002  -0.000003   0.000023  -0.000370
    26  S    0.003292  -0.000642   0.000110  -0.000372  -0.003206  -0.000003
    27  C   -0.000915  -0.000003   0.000000  -0.000000   0.000000  -0.041210
    28  C    0.007567   0.000000  -0.000000   0.000000  -0.000000   0.413857
    29  C   -0.039671  -0.000000  -0.000000   0.000000   0.000000  -0.042882
    30  C    0.419717   0.000000   0.000000   0.000000  -0.000000   0.007642
    31  C    0.000000   0.419480  -0.037836   0.007643  -0.000573   0.000000
    32  C   -0.000000  -0.039251   0.411178  -0.042775   0.007352   0.000000
    33  C    0.000000   0.007524  -0.042091   0.413855  -0.037211   0.000000
    34  C   -0.000003  -0.000894   0.007015  -0.041404   0.419503  -0.000000
    35  C   -0.000108   0.008905   0.000277   0.008904  -0.047567  -0.000000
    36  C    0.000013  -0.045397   0.007539  -0.000338   0.007232  -0.000000
    37  C    0.000092  -0.011923  -0.000470  -0.000002  -0.000334   0.000010
    38  C   -0.012047   0.000094   0.000016   0.000010  -0.000117  -0.000002
    39  C   -0.045780   0.000012  -0.000000  -0.000000  -0.000009  -0.000338
    40  C    0.008954  -0.000107  -0.000000  -0.000000   0.000001   0.008881
    41  H    0.000064   0.000000  -0.000000   0.000000   0.000000  -0.007753
    42  H   -0.007675   0.000000   0.000000   0.000000  -0.000000  -0.007485
    43  H    0.572217   0.000000   0.000000   0.000000   0.000000  -0.000309
    44  H    0.000000   0.569763  -0.007630  -0.000307   0.000064   0.000000
    45  H    0.000000  -0.007630   0.572162  -0.007477  -0.000322   0.000000
    46  H    0.000000  -0.000307  -0.007477   0.571925  -0.007787  -0.000000
    47  H    0.000000   0.000064  -0.000322  -0.007787   0.566138   0.000000
    48  H   -0.000309   0.000000   0.000000  -0.000000   0.000000   0.571715
 Mulliken charges:
               1
     1  S    0.282145
     2  S    0.287943
     3  C   -0.069722
     4  C   -0.082899
     5  C   -0.106601
     6  C   -0.043623
     7  C   -0.045508
     8  C   -0.107508
     9  C   -0.082806
    10  C   -0.068701
    11  C   -0.202876
    12  C    0.012311
    13  C   -0.180093
    14  C   -0.179804
    15  C    0.013272
    16  C   -0.203387
    17  H    0.096812
    18  H    0.097530
    19  H    0.097041
    20  H    0.095230
    21  H    0.096951
    22  H    0.098247
    23  H    0.097916
    24  H    0.098129
    25  S    0.287945
    26  S    0.282143
    27  C   -0.068701
    28  C   -0.082806
    29  C   -0.107507
    30  C   -0.045509
    31  C   -0.043623
    32  C   -0.106601
    33  C   -0.082899
    34  C   -0.069722
    35  C   -0.203387
    36  C    0.013271
    37  C   -0.179804
    38  C   -0.180093
    39  C    0.012311
    40  C   -0.202877
    41  H    0.097916
    42  H    0.096951
[...]
 Alpha  occ. eigenvalues --   -5.92739  -5.92739  -5.92267  -5.92267  -0.92302
 Alpha  occ. eigenvalues --   -0.88212  -0.84135  -0.82097  -0.77756  -0.77358
 Alpha  occ. eigenvalues --   -0.73954  -0.72123  -0.70016  -0.64604  -0.61534
 Alpha  occ. eigenvalues --   -0.59365  -0.58463  -0.56987  -0.51417  -0.50220
 Alpha  occ. eigenvalues --   -0.49097  -0.47492  -0.45651  -0.45496  -0.43992
 Alpha  occ. eigenvalues --   -0.43459  -0.43123  -0.40830  -0.40503  -0.39185
 Alpha  occ. eigenvalues --   -0.37284  -0.36629  -0.36204  -0.34755  -0.34568
 Alpha  occ. eigenvalues --   -0.34541  -0.32716  -0.28877  -0.28202  -0.24977
 Alpha  occ. eigenvalues --   -0.22873  -0.21142
 Alpha virt. eigenvalues --   -0.05634  -0.02355  -0.01598  -0.00538   0.00529
 Alpha virt. eigenvalues --    0.01814   0.04007   0.04132   0.04932   0.06274
 Alpha virt. eigenvalues --    0.07391   0.07898   0.08378   0.11281   0.12155
 Alpha virt. eigenvalues --    0.12961   0.13135   0.13213   0.14000   0.15844
 Alpha virt. eigenvalues --    0.16154   0.17706   0.19342   0.20644   0.23011
 Alpha virt. eigenvalues --    0.23156   0.24325   0.26898   0.27563   0.27686
 Alpha virt. eigenvalues --    0.28436   0.28987   0.29457   0.32879   0.34470
 Alpha virt. eigenvalues --    0.35828   0.37143   0.37441   0.38214   0.38784
 Alpha virt. eigenvalues --    0.38883   0.39778   0.40122   0.40604   0.41645
 Alpha virt. eigenvalues --    0.42095   0.42530   0.42664   0.44115   0.44468
 Alpha virt. eigenvalues --    0.44601   0.45384   0.45598   0.45806   0.45854
 Alpha virt. eigenvalues --    0.48376   0.49289   0.49469   0.50768   0.51611
 Alpha virt. eigenvalues --    0.53255   0.54814   0.56289   0.57147   0.58053
 Alpha virt. eigenvalues --    0.58699   0.59093   0.59418   0.59907   0.60359
 Alpha virt. eigenvalues --    0.60411   0.61634   0.62056   0.63624   0.63701
 Alpha virt. eigenvalues --    0.64647   0.66103   0.69589   0.70213   0.71869
 Alpha virt. eigenvalues --    0.72254   0.72781   0.73141   0.73662   0.74647
 Alpha virt. eigenvalues --    0.75797   0.76581   0.77499   0.78874   0.80150
 Alpha virt. eigenvalues --    0.80162   0.81842   0.83225   0.84213   0.84656
 Alpha virt. eigenvalues --    0.85760   0.85988   0.88325   0.88907   0.90285
 Alpha virt. eigenvalues --    0.90749   0.92271   0.93486   0.95972   0.96735
 Alpha virt. eigenvalues --    0.96752   0.98696   0.99409   1.00269   1.01682
 Alpha virt. eigenvalues --    1.02841   1.06057   1.06378   1.07541   1.08927
 Alpha virt. eigenvalues --    1.08966   1.09370   1.10726   1.11288   1.15743
 Alpha virt. eigenvalues --    1.18261   1.20259   1.21823   1.22319   1.24553
 Alpha virt. eigenvalues --    1.27961   1.28574   1.28963   1.34786   1.38700
 Alpha virt. eigenvalues --    1.40575   1.41488   1.42794   1.44201   1.44815
 Alpha virt. eigenvalues --    1.47146   1.47767   1.48942   1.52381   1.53863
 Alpha virt. eigenvalues --    1.53968   1.55929   1.56261   1.57906   1.58887
 Alpha virt. eigenvalues --    1.59642   1.60508   1.61021   1.61377   1.62167
 Alpha virt. eigenvalues --    1.63004   1.67111   1.69298   1.70368   1.71950
 Alpha virt. eigenvalues --    1.72872   1.73402   1.74565   1.75625   1.80208
 Alpha virt. eigenvalues --    1.80449   1.81565   1.82362   1.83269   1.83805
 Alpha virt. eigenvalues --    1.84229   1.86699   1.88786   1.89364   1.89440
 Alpha virt. eigenvalues --    1.89832   1.90823   1.90933   1.93661   1.93790
 Alpha virt. eigenvalues --    1.93885   1.96146   1.96192   1.98879   1.99490
 Alpha virt. eigenvalues --    2.00049   2.01111   2.02442   2.03435   2.06509
 Alpha virt. eigenvalues --    2.08045   2.10951   2.12006   2.14109   2.22431
 Alpha virt. eigenvalues --    2.25160   2.26306   2.26613   2.27653   2.32650
 Alpha virt. eigenvalues --    2.32800   2.32874   2.33279   2.34000   2.35759
 Alpha virt. eigenvalues --    2.37461   2.40468   2.47840   2.51992   2.53565
 Alpha virt. eigenvalues --    2.55488   2.56345   2.57262   2.59883   2.60227
 Alpha virt. eigenvalues --    2.61400   2.61610   2.62145   2.63709   2.64452
 Alpha virt. eigenvalues --    2.65123   2.65896   2.68911   2.68924   2.68999
 Alpha virt. eigenvalues --    2.70410   2.71688   2.73533   2.77368   2.79988
 Alpha virt. eigenvalues --    2.81351   2.81647   2.82207   2.83175   2.83583
 Alpha virt. eigenvalues --    2.87662   2.91705   2.92379   2.97020   3.03978
 Alpha virt. eigenvalues --    3.04299   3.07287   3.10371   3.15514   3.17190
 Alpha virt. eigenvalues --    3.23369   3.24266   3.29670   3.30263   3.31901
 Alpha virt. eigenvalues --    3.34398   3.38725   3.42628   3.44598   3.45777
 Alpha virt. eigenvalues --    3.50498   3.54556   3.55826   3.62654   3.75967
 Alpha virt. eigenvalues --    3.82196   3.98588   4.00437   4.01595   4.03790
 Alpha virt. eigenvalues --    4.11484   4.11840   4.19784   4.54946   4.79699
 Alpha virt. eigenvalues --    4.79826   7.81119   7.83950  17.19636  17.21067
 Alpha virt. eigenvalues --   17.43715  17.51189  17.52287  17.53379  23.35373
 Alpha virt. eigenvalues --   23.53812  23.68918  23.85655  23.85823  23.90157
 Alpha virt. eigenvalues --   23.92087  23.98132  24.01115  24.03741  24.07284
 Alpha virt. eigenvalues --   24.07407  24.14660  24.14770 188.92517 188.95387
          Condensed to atoms (all electrons):
              25         26         27         28         29         30
    25  S   15.370521   0.009509  -0.061459   0.005886  -0.000104   0.009383
    26  S    0.009509  15.370523  -0.000169  -0.000038   0.000327   0.002372
    27  C   -0.061459  -0.000169   4.861973   0.512595  -0.040618  -0.053511
    28  C    0.005886  -0.000038   0.512595   4.879645   0.492494  -0.051841
    29  C   -0.000104   0.000327  -0.040618   0.492494   4.878939   0.511515
    30  C    0.009383   0.002372  -0.053511  -0.051841   0.511515   4.875463
    31  C    0.002372   0.009384  -0.000001   0.000000  -0.000000  -0.000001
    32  C    0.000327  -0.000104   0.000000  -0.000000   0.000000  -0.000000
    33  C   -0.000038   0.005886  -0.000000   0.000000  -0.000000   0.000000
    34  C   -0.000169  -0.061459   0.000000  -0.000000   0.000000  -0.000001
    35  C    0.008663   0.306204   0.000033  -0.000002   0.000002  -0.000301
    36  C   -0.070641  -0.088260  -0.000510   0.000027  -0.000018   0.000095
    37  C    0.316757  -0.092103  -0.000488  -0.000022  -0.000613   0.011534
    38  C   -0.092103   0.316757   0.017255  -0.001042   0.013325  -0.089217
    39  C   -0.088260  -0.070641   0.006577  -0.049987  -0.029891   0.486116
    40  C    0.306204   0.008663   0.443291  -0.047947  -0.054765  -0.045309
    41  H   -0.003185   0.000023   0.419541  -0.037063   0.007347  -0.000568
    42  H    0.000110  -0.000002   0.007001  -0.041819   0.411184  -0.038061
    43  H   -0.000642   0.003289  -0.000908   0.007554  -0.039506   0.419764
    44  H    0.003289  -0.000642  -0.000003   0.000000  -0.000000   0.000000
    45  H   -0.000002   0.000110   0.000000  -0.000000  -0.000000   0.000000
    46  H   -0.000003  -0.000371  -0.000000   0.000000   0.000000   0.000000
    47  H    0.000023  -0.003185   0.000000  -0.000000   0.000000  -0.000000
    48  H   -0.000371  -0.000003  -0.041208   0.413909  -0.042677   0.007628
              31         32         33         34         35         36
    25  S    0.002372   0.000327  -0.000038  -0.000169   0.008663  -0.070641
    26  S    0.009384  -0.000104   0.005886  -0.061459   0.306204  -0.088260
    27  C   -0.000001   0.000000  -0.000000   0.000000   0.000033  -0.000510
    28  C    0.000000  -0.000000   0.000000  -0.000000  -0.000002   0.000027
    29  C   -0.000000   0.000000  -0.000000   0.000000   0.000002  -0.000018
    30  C   -0.000001  -0.000000   0.000000  -0.000001  -0.000301   0.000095
    31  C    4.875464   0.511514  -0.051841  -0.053511  -0.045308   0.486115
    32  C    0.511514   4.878940   0.492493  -0.040618  -0.054765  -0.029890
    33  C   -0.051841   0.492493   4.879646   0.512593  -0.047947  -0.049987
    34  C   -0.053511  -0.040618   0.512593   4.861974   0.443290   0.006578
    35  C   -0.045308  -0.054765  -0.047947   0.443290   5.390459   0.412309
    36  C    0.486115  -0.029890  -0.049987   0.006578   0.412309   4.949755
    37  C   -0.089217   0.013325  -0.001043   0.017255  -0.096660   0.392923
    38  C    0.011534  -0.000613  -0.000022  -0.000488  -0.086686  -0.014510
    39  C    0.000095  -0.000018   0.000027  -0.000510   0.003451   0.021082
    40  C   -0.000301   0.000002  -0.000002   0.000033  -0.000008   0.003451
    41  H   -0.000000   0.000000  -0.000000   0.000000   0.000001  -0.000009
    42  H    0.000000  -0.000000  -0.000000   0.000000  -0.000000  -0.000000
    43  H    0.000000  -0.000000   0.000000  -0.000003  -0.000107   0.000013
    44  H    0.419764  -0.039506   0.007554  -0.000908   0.008942  -0.045793
    45  H   -0.038061   0.411184  -0.041819   0.007001   0.000281   0.007544
    46  H    0.007628  -0.042677   0.413909  -0.041208   0.008882  -0.000338
    47  H   -0.000568   0.007347  -0.037063   0.419542  -0.047521   0.007228
    48  H    0.000000   0.000000   0.000000  -0.000000  -0.000000  -0.000000
              37         38         39         40         41         42
    25  S    0.316757  -0.092103  -0.088260   0.306204  -0.003185   0.000110
    26  S   -0.092103   0.316757  -0.070641   0.008663   0.000023  -0.000002
    27  C   -0.000488   0.017255   0.006577   0.443291   0.419541   0.007001
    28  C   -0.000022  -0.001042  -0.049987  -0.047947  -0.037063  -0.041819
    29  C   -0.000613   0.013325  -0.029891  -0.054765   0.007347   0.411184
    30  C    0.011534  -0.089217   0.486116  -0.045309  -0.000568  -0.038061
    31  C   -0.089217   0.011534   0.000095  -0.000301  -0.000000   0.000000
    32  C    0.013325  -0.000613  -0.000018   0.000002   0.000000  -0.000000
    33  C   -0.001043  -0.000022   0.000027  -0.000002  -0.000000  -0.000000
    34  C    0.017255  -0.000488  -0.000510   0.000033   0.000000   0.000000
    35  C   -0.096660  -0.086686   0.003451  -0.000008   0.000001  -0.000000
    36  C    0.392923  -0.014510   0.021082   0.003451  -0.000009  -0.000000
    37  C    5.458987   0.363451  -0.014510  -0.086686  -0.000118   0.000016
    38  C    0.363451   5.458985   0.392924  -0.096660  -0.000333  -0.000469
    39  C   -0.014510   0.392924   4.949754   0.412309   0.007227   0.007544
    40  C   -0.086686  -0.096660   0.412309   5.390459  -0.047521   0.000281
    41  H   -0.000118  -0.000333   0.007227  -0.047521   0.565102  -0.000321
    42  H    0.000016  -0.000469   0.007544   0.000281  -0.000321   0.571823
    43  H    0.000092  -0.012023  -0.045793   0.008942   0.000064  -0.007644
    44  H   -0.012023   0.000092   0.000013  -0.000107   0.000000   0.000000
    45  H   -0.000469   0.000016  -0.000000  -0.000000  -0.000000   0.000000
    46  H   -0.000002   0.000010  -0.000000  -0.000000   0.000000   0.000000
    47  H   -0.000333  -0.000118  -0.000009   0.000001   0.000000  -0.000000
    48  H    0.000010  -0.000002  -0.000338   0.008882  -0.007754  -0.007454
              43         44         45         46         47         48
    25  S   -0.000642   0.003289  -0.000002  -0.000003   0.000023  -0.000371
    26  S    0.003289  -0.000642   0.000110  -0.000371  -0.003185  -0.000003
    27  C   -0.000908  -0.000003   0.000000  -0.000000   0.000000  -0.041208
    28  C    0.007554   0.000000  -0.000000   0.000000  -0.000000   0.413909
    29  C   -0.039506  -0.000000  -0.000000   0.000000   0.000000  -0.042677
    30  C    0.419764   0.000000   0.000000   0.000000  -0.000000   0.007628
    31  C    0.000000   0.419764  -0.038061   0.007628  -0.000568   0.000000
    32  C   -0.000000  -0.039506   0.411184  -0.042677   0.007347   0.000000
    33  C    0.000000   0.007554  -0.041819   0.413909  -0.037063   0.000000
    34  C   -0.000003  -0.000908   0.007001  -0.041208   0.419542  -0.000000
    35  C   -0.000107   0.008942   0.000281   0.008882  -0.047521  -0.000000
    36  C    0.000013  -0.045793   0.007544  -0.000338   0.007228  -0.000000
    37  C    0.000092  -0.012023  -0.000469  -0.000002  -0.000333   0.000010
    38  C   -0.012023   0.000092   0.000016   0.000010  -0.000118  -0.000002
    39  C   -0.045793   0.000013  -0.000000  -0.000000  -0.000009  -0.000338
    40  C    0.008942  -0.000107  -0.000000  -0.000000   0.000001   0.008882
    41  H    0.000064   0.000000  -0.000000   0.000000   0.000000  -0.007754
    42  H   -0.007644   0.000000   0.000000   0.000000  -0.000000  -0.007454
    43  H    0.571389   0.000000   0.000000   0.000000   0.000000  -0.000308
    44  H    0.000000   0.571389  -0.007644  -0.000308   0.000064   0.000000
    45  H    0.000000  -0.007644   0.571823  -0.007454  -0.000321   0.000000
    46  H    0.000000  -0.000308  -0.007454   0.570652  -0.007754  -0.000000
    47  H    0.000000   0.000064  -0.000321  -0.007754   0.565101   0.000000
    48  H   -0.000308   0.000000   0.000000  -0.000000   0.000000   0.570652
 Mulliken charges:
               1
     1  S    0.000000
     2  S    0.000000
     3  C    0.000000
     4  C    0.000000
     5  C    0.000000
     6  C    0.000000
     7  C    0.000000
     8  C    0.000000
     9  C    0.000000
    10  C    0.000000
    11  C    0.000000
    12  C    0.000000
    13  C    0.000000
    14  C    0.000000
    15  C    0.000000
    16  C    0.000000
    17  H    0.000000
    18  H    0.000000
    19  H    0.000000
    20  H    0.000000
    21  H    0.000000
    22  H    0.000000
    23  H    0.000000
    24  H    0.000000
    25  S    0.283934
    26  S    0.283932
    27  C   -0.069392
    28  C   -0.082346
    29  C   -0.106941
    30  C   -0.045060
    31  C   -0.045060
    32  C   -0.106942
    33  C   -0.082346
    34  C   -0.069391
    35  C   -0.203209
    36  C    0.012838
    37  C   -0.180062
    38  C   -0.180063
    39  C    0.012839
    40  C   -0.203210
    41  H    0.097566
    42  H    0.097812
    43  H    0.095826
    44  H    0.095826
    45  H    0.097812
    46  H    0.099035
    47  H    0.097566
    48  H    0.099035
 Sum of Mulliken charges =  -0.00000
 Mulliken charges with hydrogens summed into heavy atoms:
               1
     1  S    0.000000
     2  S    0.000000
     3  C    0.000000
     4  C    0.000000
     5  C    0.000000
     6  C    0.000000
     7  C    0.000000
     8  C    0.000000
     9  C    0.000000
    10  C    0.000000
    11  C    0.000000
    12  C    0.000000
    13  C    0.000000
    14  C    0.000000
    15  C    0.000000
    16  C    0.000000
    25  S    0.283934
    26  S    0.283932
    27  C    0.028175
    28  C    0.016688
    29  C   -0.009129
    30  C    0.050766
    31  C    0.050766
    32  C   -0.009129
    33  C    0.016688
    34  C    0.028175
    35  C   -0.203209
    36  C    0.012838
    37  C   -0.180062
    38  C   -0.180063
    39  C    0.012839
    40  C   -0.203210
         Mulliken charges condensed to fragments:
      1      0.000000
      2     -0.000000
 Electronic spatial extent (au):  <R**2>=          11531.8089
 Charge=             -0.0000 electrons
 Dipole moment (field-independent basis, Debye):
    X=             -0.0000    Y=              0.0000    Z=             -0.0000  Tot=              0.0000
 Quadrupole moment (field-independent basis, Debye-Ang):
   XX=           -108.9307   YY=            -88.7602   ZZ=           -102.5854
   XY=             -1.5737   XZ=              7.0699   YZ=              0.3926
 Traceless Quadrupole moment (field-independent basis, Debye-Ang):
   XX=             -8.8386   YY=             11.3318   ZZ=             -2.4933
   XY=             -1.5737   XZ=              7.0699   YZ=              0.3926
 Octapole moment (field-independent basis, Debye-Ang**2):
  XXX=          -1309.5559  YYY=            -34.3734  ZZZ=             65.3139  XYY=           -356.0959
  XXY=            -26.6741  XXZ=             79.7806  XZZ=           -414.0920  YZZ=            -13.4092
  YYZ=             18.9386  XYZ=              2.8198
 Hexadecapole moment (field-independent basis, Debye-Ang**3):
 XXXX=         -11004.1447 YYYY=          -4244.9025 ZZZZ=           -947.2319 XXXY=            -73.8204
 XXXZ=            363.9410 YYYX=            -17.4527 YYYZ=             34.8509 ZZZX=             38.8010
 ZZZY=              1.4499 XXYY=          -2339.5506 XXZZ=          -1894.0110 YYZZ=           -903.7448
 XXYZ=              1.9450 YYXZ=             84.8474 ZZXY=             -9.4179
 N-N= 1.192162449365D+03 E-N=-5.527361779988D+03  KE= 1.331399870392D+03
 CPIOFr:  IOpCl= 0 IRwI=-1 IRwCP=  731 ICalc=  4 LCPTot=      762852 Len1MO=     1998050 IndFrg=    10753102
 CPIOFr:  IOpCl= 0 IRwI=-2 IRwCP=  731 ICalc=  0 LCPTot=      762852 Len1MO=     1998050 IndFrg=     2760902
 Counterpoise corrected energy =   -2669.795211379114
                   BSSE energy =       0.000003657713
              sum of fragments =   -2669.794630473828
           complexation energy =      -0.37 kcal/mole (raw)
           complexation energy =      -0.36 kcal/mole (corrected)
 1\1\GINC-CMDELL86\SP\RB3LYP\6-311G(d,p)\C28H16S4\OHNO\14-Jul-2021\0\\#
 b3lyp/6-311G** EmpiricalDispersion=GD3 counterpoise=2\\BTBT dimer b3ly
 p/6-311G**\\0,1\S,0,1.6203193263,0.9333401805,-0.9655543418\S,0,-1.620
 3215046,-0.9333388826,0.9655526073\C,0,0.7607010875,0.432046614,-3.596
 4890673\C,0,-0.1990145233,-0.0970811798,-4.456605144\C,0,-1.3358730484
 ,-0.7617409166,-3.9518894629\C,0,-1.5484008838,-0.8661903564,-2.581713
 2069\C,0,1.5483981093,0.866196593,2.581713372\C,0,1.3358706776,0.76174
 32744,3.9518892671\C,0,0.19901583,0.0970776341,4.4566055645\C,0,-0.760
 6973501,-0.4320550248,3.5964887592\C,0,-0.5418750743,-0.3467155574,2.2
 136722139\C,0,0.5874862401,0.3462927079,1.6917199634\C,0,0.5677107081,
 0.3035896045,0.2629304608\C,0,-0.5677107915,-0.3035871419,-0.262930279
 8\C,0,-0.5874867399,-0.3462921765,-1.6917195198\C,0,0.5418798052,0.346
 711325,-2.2136710574\H,0,1.6351619757,0.9441051055,-3.9892419249\H,0,-
 2.069015815,-1.1685664408,-4.6425298944\H,0,-2.4232632237,-1.382224776
 ,-2.1937042881\H,0,2.4232592385,1.3822352091,2.193705084\H,0,2.0690081
 682,1.1685767873,4.6425301772\H,0,0.0489377359,0.0282464127,5.53031334
 02\H,0,-1.6351576368,-0.9441151195,3.9892396112\H,0,-0.0489323111,-0.0
 282538749,-5.5303122329\S,0,1.6203193263,-7.0966598195,-0.9655543418\S
 ,0,-1.6203215046,-8.9633388826,0.9655526073\C,0,0.7607010875,-7.597953
 386,-3.5964890673\C,0,-0.1990145233,-8.1270811798,-4.456605144\C,0,-1.
 3358730484,-8.7917409166,-3.9518894629\C,0,-1.5484008838,-8.8961903564
 ,-2.5817132069\C,0,1.5483981093,-7.163803407,2.581713372\C,0,1.3358706
 776,-7.2682567256,3.9518892671\C,0,0.19901583,-7.9329223659,4.45660556
 45\C,0,-0.7606973501,-8.4620550248,3.5964887592\C,0,-0.5418750743,-8.3
 767155574,2.2136722139\C,0,0.5874862401,-7.6837072921,1.6917199634\C,0
 ,0.5677107081,-7.7264103955,0.2629304608\C,0,-0.5677107915,-8.33358714
 19,-0.2629302798\C,0,-0.5874867399,-8.3762921765,-1.6917195198\C,0,0.5
 418798052,-7.683288675,-2.2136710574\H,0,1.6351619757,-7.0858948945,-3
 .9892419249\H,0,-2.069015815,-9.1985664408,-4.6425298944\H,0,-2.423263
 2237,-9.412224776,-2.1937042881\H,0,2.4232592385,-6.6477647909,2.19370
 5084\H,0,2.0690081682,-6.8614232127,4.6425301772\H,0,0.0489377359,-8.0
 017535873,5.5303133402\H,0,-1.6351576368,-8.9741151195,3.9892396112\H,
 0,-0.0489323111,-8.0582538749,-5.5303122329\\Version=ES64L-G16RevA.03\
 State=1-A\HF=-1334.8973152\RMSD=8.833e-09\Dipole=0.0000025,0.0000074,0
 .0000047\Quadrupole=-2.051024,-14.7665465,16.8175705,9.5724661,1.16355
 1,0.6082348\PG=C01 [X(C28H16S4)]\\@


 THE PROBLEM WITH THE LADDER OF SUCCESS IS YOU CAN'T
 CLIMB IT WHILE YOU'RE TWIDDLING YOUR THUMBS.
 Job cpu time:       0 days  1 hours 53 minutes 56.5 seconds.
 Elapsed time:       0 days  0 hours  2 minutes 53.9 seconds.
 File lengths (MBytes):  RWF=    395 Int=      0 D2E=      0 Chk=    113 Scr=      2
 Normal termination of Gaussian 16 at Wed Jul 14 11:35:10 2021.
