 Entering Gaussian System, Link 0=g16
 Initial command:
 /home/g03/g16/l1.exe "/home/scr/21098/Gau-181548.inp" -scrdir="/home/scr/21098/"
 Entering Link 1 = /home/g03/g16/l1.exe PID=    181549.
  
 Copyright (c) 1988,1990,1992,1993,1995,1998,2003,2009,2016,
            Gaussian, Inc.  All Rights Reserved.
  
 This is part of the Gaussian(R) 16 program.  It is based on
 the Gaussian(R) 09 system (copyright 2009, Gaussian, Inc.),
 the Gaussian(R) 03 system (copyright 2003, Gaussian, Inc.),
 the Gaussian(R) 98 system (copyright 1998, Gaussian, Inc.),
 the Gaussian(R) 94 system (copyright 1995, Gaussian, Inc.),
 the Gaussian 92(TM) system (copyright 1992, Gaussian, Inc.),
 the Gaussian 90(TM) system (copyright 1990, Gaussian, Inc.),
 the Gaussian 88(TM) system (copyright 1988, Gaussian, Inc.),
 the Gaussian 86(TM) system (copyright 1986, Carnegie Mellon
 University), and the Gaussian 82(TM) system (copyright 1983,
 Carnegie Mellon University). Gaussian is a federally registered
 trademark of Gaussian, Inc.
  
 This software contains proprietary and confidential information,
 including trade secrets, belonging to Gaussian, Inc.
  
 This software is provided under written license and may be
 used, copied, transmitted, or stored only in accord with that
 written license.
  
 The following legend is applicable only to US Government
 contracts under FAR:
  
                    RESTRICTED RIGHTS LEGEND
  
 Use, reproduction and disclosure by the US Government is
 subject to restrictions as set forth in subparagraphs (a)
 and (c) of the Commercial Computer Software - Restricted
 Rights clause in FAR 52.227-19.
  
 Gaussian, Inc.
 340 Quinnipiac St., Bldg. 40, Wallingford CT 06492
  
  
 ---------------------------------------------------------------
 Warning -- This program may not be used in any manner that
 competes with the business of Gaussian, Inc. or will provide
 assistance to any competitor of Gaussian, Inc.  The licensee
 of this program is prohibited from giving any competitor of
 Gaussian, Inc. access to this program.  By using this program,
 the user acknowledges that Gaussian, Inc. is engaged in the
 business of creating and licensing software in the field of
 computational chemistry and represents and warrants to the
 licensee that it is not a competitor of Gaussian, Inc. and that
 it will not use this program in any manner prohibited above.
 ---------------------------------------------------------------
  

 Cite this work as:
 Gaussian 16, Revision A.03,
 M. J. Frisch, G. W. Trucks, H. B. Schlegel, G. E. Scuseria, 
 M. A. Robb, J. R. Cheeseman, G. Scalmani, V. Barone, 
 G. A. Petersson, H. Nakatsuji, X. Li, M. Caricato, A. V. Marenich, 
 J. Bloino, B. G. Janesko, R. Gomperts, B. Mennucci, H. P. Hratchian, 
 J. V. Ortiz, A. F. Izmaylov, J. L. Sonnenberg, D. Williams-Young, 
 F. Ding, F. Lipparini, F. Egidi, J. Goings, B. Peng, A. Petrone, 
 T. Henderson, D. Ranasinghe, V. G. Zakrzewski, J. Gao, N. Rega, 
 G. Zheng, W. Liang, M. Hada, M. Ehara, K. Toyota, R. Fukuda, 
 J. Hasegawa, M. Ishida, T. Nakajima, Y. Honda, O. Kitao, H. Nakai, 
 T. Vreven, K. Throssell, J. A. Montgomery, Jr., J. E. Peralta, 
 F. Ogliaro, M. J. Bearpark, J. J. Heyd, E. N. Brothers, K. N. Kudin, 
 V. N. Staroverov, T. A. Keith, R. Kobayashi, J. Normand, 
 K. Raghavachari, A. P. Rendell, J. C. Burant, S. S. Iyengar, 
 J. Tomasi, M. Cossi, J. M. Millam, M. Klene, C. Adamo, R. Cammi, 
 J. W. Ochterski, R. L. Martin, K. Morokuma, O. Farkas, 
 J. B. Foresman, and D. J. Fox, Gaussian, Inc., Wallingford CT, 2016.
 
 ******************************************
 Gaussian 16:  ES64L-G16RevA.03 25-Dec-2016
                14-Jul-2021 
 ******************************************
 %NProcShared=40
 Will use up to   40 processors via shared memory.
 %Mem=15GB
 ------------------------------------------------------
 #b3lyp/6-311G** EmpiricalDispersion=GD3 counterpoise=2
 ------------------------------------------------------
 1/38=1,62=2,172=1/1;
 2/12=2,17=6,18=5,40=1/2;
 1/38=1,53=2,62=2,63=1/22;
 3/5=4,6=6,7=101,11=2,25=1,30=1,74=-5,124=31/1,2,3;
 4//1;
 5/5=2,38=5/2;
 6/7=2,8=2,9=2,10=2,28=1/1;
 1/53=2,62=2,63=1/22;
 3/5=7,6=11,7=101,11=2,25=1,30=1,74=-5,82=7,124=31/1,2,3;
 4//1;
 5/5=2,38=5/2;
 6/7=2,8=2,9=2,10=2,28=1/1;
 1/53=2,62=2,63=1/22(-4);
 99/5=1,9=1/99;
 -------------------------
 BTBT dimer b3lyp/6-311G**
 -------------------------
 Symbolic Z-matrix:
 Charge =  0 Multiplicity = 1 in supermolecule
 Charge =  0 Multiplicity = 1 in fragment      1.
 Charge =  0 Multiplicity = 1 in fragment      2.
 S                     1.62032   0.93334  -0.96555    
 S                    -1.62032  -0.93334   0.96555    
 C                     0.7607    0.43205  -3.59649    
 C                    -0.19901  -0.09708  -4.45661    
 C                    -1.33587  -0.76174  -3.95189    
 C                    -1.5484   -0.86619  -2.58171    
 C                     1.5484    0.8662    2.58171    
 C                     1.33587   0.76174   3.95189    
 C                     0.19902   0.09708   4.45661    
 C                    -0.7607   -0.43206   3.59649    
 C                    -0.54188  -0.34672   2.21367    
 C                     0.58749   0.34629   1.69172    
 C                     0.56771   0.30359   0.26293    
 C                    -0.56771  -0.30359  -0.26293    
 C                    -0.58749  -0.34629  -1.69172    
 C                     0.54188   0.34671  -2.21367    
 H                     1.63516   0.94411  -3.98924    
 H                    -2.06902  -1.16857  -4.64253    
 H                    -2.42326  -1.38222  -2.1937     
 H                     2.42326   1.38224   2.19371    
 H                     2.06901   1.16858   4.64253    
 H                     0.04894   0.02825   5.53031    
 H                    -1.63516  -0.94412   3.98924    
 H                    -0.04893  -0.02825  -5.53031    
 S                     1.30468  -3.09166  -0.96555    
 S                     4.54532  -4.95834   0.96555    
 C                     2.1643   -3.59295  -3.59649    
 C                     3.12401  -4.12208  -4.45661    
 C                     4.26087  -4.78674  -3.95189    
 C                     4.4734   -4.89119  -2.58171    
 C                     1.3766   -3.1588    2.58171    
 C                     1.58913  -3.26326   3.95189    
 C                     2.72598  -3.92792   4.45661    
 C                     3.6857   -4.45706   3.59649    
 C                     3.46688  -4.37172   2.21367    
 C                     2.33751  -3.67871   1.69172    
 C                     2.35729  -3.72141   0.26293    
 C                     3.49271  -4.32859  -0.26293    
 C                     3.51249  -4.37129  -1.69172    
 C                     2.38312  -3.67829  -2.21367    
 H                     1.28984  -3.08089  -3.98924    
 H                     4.99402  -5.19357  -4.64253    
 H                     5.34826  -5.40722  -2.1937     
 H                     0.50174  -2.64276   2.19371    
 H                     0.85599  -2.85642   4.64253    
 H                     2.87606  -3.99675   5.53031    
 H                     4.56016  -4.96912   3.98924    
 H                     2.97393  -4.05325  -5.53031    
 
                          Input orientation:                          
 ---------------------------------------------------------------------
 Center     Atomic      Atomic             Coordinates (Angstroms)
 Number     Number       Type             X           Y           Z
 ---------------------------------------------------------------------
      1         16           0        1.620319    0.933340   -0.965554
      2         16           0       -1.620322   -0.933339    0.965553
      3          6           0        0.760701    0.432047   -3.596489
      4          6           0       -0.199015   -0.097081   -4.456605
      5          6           0       -1.335873   -0.761741   -3.951889
      6          6           0       -1.548401   -0.866190   -2.581713
      7          6           0        1.548398    0.866197    2.581713
      8          6           0        1.335871    0.761743    3.951889
      9          6           0        0.199016    0.097078    4.456606
     10          6           0       -0.760697   -0.432055    3.596489
     11          6           0       -0.541875   -0.346716    2.213672
     12          6           0        0.587486    0.346293    1.691720
     13          6           0        0.567711    0.303590    0.262930
     14          6           0       -0.567711   -0.303587   -0.262930
     15          6           0       -0.587487   -0.346292   -1.691720
     16          6           0        0.541880    0.346711   -2.213671
     17          1           0        1.635162    0.944105   -3.989242
     18          1           0       -2.069016   -1.168566   -4.642530
     19          1           0       -2.423263   -1.382225   -2.193704
     20          1           0        2.423259    1.382235    2.193705
     21          1           0        2.069008    1.168577    4.642530
     22          1           0        0.048938    0.028246    5.530313
     23          1           0       -1.635158   -0.944115    3.989240
     24          1           0       -0.048932   -0.028254   -5.530312
     25         16           0        1.304681   -3.091660   -0.965554
     26         16           0        4.545322   -4.958339    0.965553
     27          6           0        2.164299   -3.592953   -3.596489
     28          6           0        3.124015   -4.122081   -4.456605
     29          6           0        4.260873   -4.786741   -3.951889
     30          6           0        4.473401   -4.891190   -2.581713
     31          6           0        1.376602   -3.158803    2.581713
     32          6           0        1.589129   -3.263257    3.951889
     33          6           0        2.725984   -3.927922    4.456606
     34          6           0        3.685697   -4.457055    3.596489
     35          6           0        3.466875   -4.371716    2.213672
     36          6           0        2.337514   -3.678707    1.691720
     37          6           0        2.357289   -3.721410    0.262930
     38          6           0        3.492711   -4.328587   -0.262930
     39          6           0        3.512487   -4.371292   -1.691720
     40          6           0        2.383120   -3.678289   -2.213671
     41          1           0        1.289838   -3.080895   -3.989242
     42          1           0        4.994016   -5.193566   -4.642530
     43          1           0        5.348263   -5.407225   -2.193704
     44          1           0        0.501741   -2.642765    2.193705
     45          1           0        0.855992   -2.856423    4.642530
     46          1           0        2.876062   -3.996754    5.530313
     47          1           0        4.560158   -4.969115    3.989240
     48          1           0        2.973932   -4.053254   -5.530312
 ---------------------------------------------------------------------
                    Distance matrix (angstroms):
                    1          2          3          4          5
     1  S    0.000000
     2  S    4.208969   0.000000
     3  C    2.812838   5.324075   0.000000
     4  C    4.069297   5.667383   1.393137   0.000000
     5  C    4.531067   4.928650   2.438660   1.410304   0.000000
     6  C    3.986360   3.548630   2.836748   2.434665   1.390489
     7  C    3.548632   3.986363   6.243327   7.315687   7.325105
     8  C    4.928652   4.531069   7.577436   8.590473   8.481093
     9  C    5.667385   4.069299   8.079606   8.924206   8.590474
    10  C    5.324076   2.812839   7.402719   8.079605   7.577436
    11  C    4.052297   1.750707   6.005094   6.683747   6.230315
    12  C    2.910752   2.653147   5.291740   6.214263   6.064435
    13  C    1.736014   2.609819   3.866376   4.798169   4.745868
    14  C    2.609817   1.736015   3.663120   4.214913   3.795840
    15  C    2.653146   2.910750   2.459994   2.803143   2.416826
    16  C    1.750703   4.052296   1.402623   2.403462   2.788553
    17  H    3.023743   6.218759   1.086803   2.160255   3.426128
    18  H    5.616881   5.630919   3.415181   2.163228   1.086273
    19  H    4.818792   3.290459   3.923903   3.423390   2.158387
    20  H    3.290462   4.818795   6.098632   7.300091   7.516385
    21  H    5.630921   5.616882   8.374699   9.462562   9.443696
    22  H    6.744237   4.954605   9.163416   9.990782   9.615298
    23  H    6.218758   3.023743   8.073242   8.608848   7.948859
    24  H    4.954602   6.744235   2.146405   1.086328   2.164633
    25  S    4.037357   4.116207   4.431054   4.839012   4.617277
    26  S    6.855413   7.363136   8.011981   8.691395   8.739629
    27  C    5.263560   6.496855   4.262712   4.306527   4.515892
    28  C    6.325015   7.878870   5.202416   5.219497   5.606891
    29  C    6.972091   8.580116   6.293906   6.491398   6.893779
    30  C    6.684101   8.085860   6.568924   6.951990   7.257920
    31  C    5.421083   4.067704   7.172428   7.835473   7.469364
    32  C    6.464801   4.964605   8.445092   9.161054   8.791072
    33  C    7.365744   6.328140   9.366109  10.132931   9.860334
    34  C    7.357607   6.891461   9.175939   9.947496   9.790277
    35  C    6.454523   6.265765   8.009837   8.729481   8.608859
    36  C    5.370890   4.871224   6.881118   7.554067   7.338446
    37  C    4.870216   4.907994   5.890282   6.476455   6.337491
    38  C    5.629157   6.259391   6.421847   7.008665   7.045994
    39  C    5.678621   6.725053   5.854275   6.299898   6.453202
    40  C    4.838056   5.802565   4.630258   4.952093   5.035729
    41  H    5.036466   6.134412   3.574213   3.367232   3.503460
    42  H    7.901959   9.661759   7.117772   7.278482   7.757935
    43  H    7.457123   8.863280   7.557157   8.005663   8.327630
    44  H    4.901088   2.988920   6.561088   7.155291   6.684565
    45  H    6.811543   4.832240   8.871559   9.566675   9.113507
    46  H    8.251001   7.102043  10.362796  11.153568  10.868205
    47  H    8.248128   7.976747  10.057420  10.849826  10.748335
    48  H    6.894592   8.546186   5.362461   5.183796   5.647999
                    6          7          8          9         10
     6  C    0.000000
     7  C    6.265166   0.000000
     8  C    7.325104   1.390489   0.000000
     9  C    7.315687   2.434666   1.410304   0.000000
    10  C    6.243327   2.836750   2.438660   1.393137   0.000000
    11  C    4.927339   2.444556   2.788550   2.403460   1.402622
    12  C    4.928931   1.409163   2.416825   2.803143   2.459994
    13  C    3.733405   2.579734   3.795839   4.214913   3.663121
    14  C    2.579734   3.733404   4.745867   4.798168   3.866376
    15  C    1.409162   4.928931   6.064435   6.214263   5.291739
    16  C    2.444557   4.927338   6.230314   6.683746   6.005093
    17  H    3.923440   6.571990   7.948861   8.608851   8.073244
    18  H    2.146960   8.331605   9.443696   9.462562   8.374698
    19  H    1.087302   6.605612   7.516383   7.300089   6.098630
    20  H    6.605613   1.087303   2.158387   3.423391   3.923905
    21  H    8.331604   2.146959   1.086273   2.163227   3.415181
    22  H    8.316038   3.412445   2.164633   1.086328   2.146407
    23  H    6.571988   3.923441   3.426129   2.160256   1.086802
    24  H    3.412445   8.316037   9.615296   9.990781   9.163414
    25  S    3.962923   5.320445   6.247475   6.386733   5.670231
    26  S    8.152437   6.746758   7.206811   7.525627   7.454053
    27  C    4.716900   7.644183   8.753724   9.073643   8.383663
    28  C    5.995624   8.769459   9.886960  10.286022   9.672621
    29  C    7.141132   9.055451  10.090145  10.538176  10.057707
    30  C    7.243115   8.268260   9.191720   9.627623   9.243909
    31  C    6.361815   4.028665   4.153279   3.937346   3.610121
    32  C    7.634002   4.351026   4.032960   3.671376   3.696444
    33  C    8.785357   5.280673   4.917328   4.752493   5.011770
    34  C    8.857780   5.825360   5.734444   5.799730   5.997587
    35  C    7.774151   5.590325   5.823657   5.973254   5.941841
    36  C    6.424392   4.697972   5.082249   5.145320   4.875224
    37  C    5.612370   5.203575   5.894945   6.068435   5.626216
    38  C    6.540470   6.233629   6.951843   7.260093   6.940429
    39  C    6.220162   7.039259   7.933223   8.291400   7.857661
    40  C    4.847702   6.659191   7.669729   7.969711   7.360678
    41  H    3.865443   7.669670   8.822106   9.089650   8.292428
    42  H    8.110263  10.039059  11.077535  11.566210  11.120708
    43  H    8.266530   8.752109   9.587689  10.051802   9.777425
    44  H    5.492169   3.682235   3.921436   3.566384   2.906680
    45  H    7.869677   4.310950   3.714619   3.031395   3.096037
    46  H    9.756089   5.839967   5.244703   5.007882   5.447272
    47  H    9.865389   6.715854   6.575725   6.701067   7.003618
    48  H    6.269219   9.593649  10.760092  11.165301  10.505191
                   11         12         13         14         15
    11  C    0.000000
    12  C    1.424132   0.000000
    13  C    2.336551   1.429564   0.000000
    14  C    2.477113   2.361669   1.390818   0.000000
    15  C    3.905658   3.647999   2.361670   1.429564   0.000000
    16  C    4.610503   3.905657   2.477112   2.336551   1.424133
    17  H    6.699392   5.807610   4.430653   4.504973   3.447304
    18  H    7.072136   7.033813   5.760478   4.709883   3.402697
    19  H    4.902741   5.210461   4.221724   2.886940   2.166846
    20  H    3.432447   2.166848   2.886941   4.221724   5.210463
    21  H    3.874555   3.402696   4.709882   5.760477   7.033812
    22  H    3.389656   3.889214   5.300025   5.835413   7.259688
    23  H    2.169053   3.447303   4.504972   4.430651   5.807607
    24  H    7.766190   7.259688   5.835412   5.300024   3.889214
    25  S    4.588242   4.403975   3.685108   3.431163   3.412427
    26  S    6.978857   6.658145   6.633472   7.022748   7.394443
    27  C    7.184665   6.780056   5.712028   5.421847   4.662755
    28  C    8.496160   8.012630   6.956671   6.767322   5.972974
    29  C    8.988569   8.467121   7.570708   7.551312   6.952161
    30  C    8.294635   7.797037   7.094516   7.199699   6.860085
    31  C    3.424010   3.701417   4.244906   4.474887   5.479972
    32  C    4.008590   4.374986   5.232027   5.583575   6.715405
    33  C    5.341788   5.521474   6.336462   6.801342   7.849144
    34  C    6.056355   6.024882   6.595316   7.087869   7.945037
    35  C    5.680731   5.551839   5.836868   6.241884   6.920547
    36  C    4.434578   4.388989   4.586102   4.863376   5.577480
    37  C    4.857892   4.660456   4.404908   4.529202   4.887104
    38  C    6.186012   5.840847   5.503564   5.717311   5.877765
    39  C    6.920054   6.500684   5.860621   5.935965   5.745468
    40  C    6.265488   5.888432   5.028382   4.888906   4.494345
    41  H    7.021898   6.671749   5.482442   5.004930   4.034973
    42  H   10.057115   9.498961   8.595024   8.603813   7.959681
    43  H    8.929023   8.418104   7.842330   8.048214   7.816531
    44  H    2.522177   3.032129   3.523244   3.556759   4.642922
    45  H    3.761916   4.363114   5.408297   5.710293   6.964704
    46  H    6.000432   6.231728   7.181000   7.685097   8.802261
    47  H    7.109849   7.022412   7.591207   8.132843   8.952208
    48  H    9.277318   8.786859   7.637647   7.372147   6.415611
                   16         17         18         19         20
    16  C    0.000000
    17  H    2.169054   0.000000
    18  H    3.874558   4.314058   0.000000
    19  H    3.432447   5.010647   2.483523   0.000000
    20  H    4.902740   6.248351   8.568619   7.097914   0.000000
    21  H    7.072134   8.645583  10.430619   8.568617   2.483523
    22  H    7.766190   9.694165  10.459676   8.231747   4.313194
    23  H    6.699390   8.827034   8.645580   6.248347   5.010648
    24  H    3.389656   2.481240   2.483789   4.313193   8.231747
    25  S    3.736584   5.053643   5.347922   4.281131   5.589980
    26  S    7.367399   8.237588   9.463743   8.445749   6.798116
    27  C    4.479441   4.584664   4.989269   5.282126   7.638449
    28  C    5.627458   5.301071   5.977071   6.587854   8.661131
    29  C    6.573024   6.303836   7.323637   7.704520   8.899518
    30  C    6.559568   6.639835   7.804365   7.747733   8.146384
    31  C    5.998425   7.751011   8.247607   6.356085   4.676224
    32  C    7.220993   8.986967   9.572554   7.576668   5.036624
    33  C    8.217992   9.811161  10.648959   8.787602   5.780150
    34  C    8.168091   9.535226  10.574134   8.961044   6.136682
    35  C    7.100741   8.371933   9.376234   7.940765   5.847861
    36  C    5.889005   7.357786   8.114249   6.560133   5.086500
    37  C    5.096948   6.353698   7.083271   5.861785   5.457054
    38  C    5.862696   6.718420   7.752382   6.885324   6.308112
    39  C    5.599687   6.087397   7.079400   6.664806   7.027519
    40  C    4.426149   5.007856   5.658584   5.326690   6.710848
    41  H    3.931994   4.039786   3.919909   4.460556   7.709281
    42  H    7.511028   7.027069   8.129394   8.691323   9.827719
    43  H    7.497300   7.573009   8.887013   8.751985   8.596614
    44  H    5.325743   7.237342   7.450917   5.421621   4.460141
    45  H    7.574050   9.463541   9.880125   7.724045   5.139970
    46  H    9.180599  10.796937  11.659296   9.725177   6.345983
    47  H    9.103882  10.352678  11.528120   9.993135   6.937574
    48  H    6.022847   5.398222   5.877151   6.884553   9.460879
                   21         22         23         24         25
    21  H    0.000000
    22  H    2.483787   0.000000
    23  H    4.314058   2.481244   0.000000
    24  H   10.459675  11.061203   9.694162   0.000000
    25  S    7.084097   7.314848   6.148543   5.661602   0.000000
    26  S    7.562499   8.119147   7.965865   9.359977   4.208969
    27  C    9.516443  10.044220   8.887941   4.620081   2.812838
    28  C   10.578202  11.243659  10.202033   5.289599   4.069297
    29  C   10.683358  11.438386  10.610866   6.611281   4.531067
    30  C    9.730960  10.468128   9.801597   7.265940   3.986360
    31  C    4.842790   4.540289   3.994580   8.811211   3.548632
    32  C    4.510922   3.962020   3.971881  10.151878   4.928652
    33  C    5.142032   4.895988   5.304818  11.074570   5.667385
    34  C    5.946059   6.089633   6.387996  10.810191   5.324076
    35  C    6.208721   6.483986   6.397798   9.549652   4.052297
    36  C    5.681156   5.806366   5.342163   8.436746   2.910752
    37  C    6.570843   6.865401   6.126857   7.279490   1.736014
    38  C    7.503951   8.025163   7.471990   7.666904   2.609817
    39  C    8.537945   9.138373   8.397445   6.802976   2.653146
    40  C    8.402277   8.896972   7.880251   5.498886   1.750703
    41  H    9.652596  10.091012   8.762283   3.672305   3.023743
    42  H   11.629483  12.458245  11.683802   7.273234   5.616881
    43  H   10.036373  10.829942  10.340034   8.318413   4.818792
    44  H    4.793683   4.297940   3.267367   8.173087   3.290462
    45  H    4.203812   3.124230   3.207731  10.597365   5.630921
    46  H    5.302842   4.918664   5.660796  12.109584   6.744237
    47  H    6.656116   6.906492   7.388001  11.673803   6.218758
    48  H   11.470533  12.147085  11.024170   5.033720   4.954602
                   26         27         28         29         30
    26  S    0.000000
    27  C    5.324075   0.000000
    28  C    5.667383   1.393137   0.000000
    29  C    4.928650   2.438660   1.410304   0.000000
    30  C    3.548630   2.836748   2.434665   1.390489   0.000000
    31  C    3.986363   6.243327   7.315687   7.325105   6.265166
    32  C    4.531069   7.577436   8.590473   8.481093   7.325104
    33  C    4.069299   8.079606   8.924206   8.590474   7.315687
    34  C    2.812839   7.402719   8.079605   7.577436   6.243327
    35  C    1.750707   6.005094   6.683747   6.230315   4.927339
    36  C    2.653147   5.291740   6.214263   6.064435   4.928931
    37  C    2.609819   3.866376   4.798169   4.745868   3.733405
    38  C    1.736015   3.663120   4.214913   3.795840   2.579734
    39  C    2.910750   2.459994   2.803143   2.416826   1.409162
    40  C    4.052296   1.402623   2.403462   2.788553   2.444557
    41  H    6.218759   1.086803   2.160255   3.426128   3.923440
    42  H    5.630919   3.415181   2.163228   1.086273   2.146960
    43  H    3.290459   3.923903   3.423390   2.158387   1.087302
    44  H    4.818795   6.098632   7.300091   7.516385   6.605613
    45  H    5.616882   8.374699   9.462562   9.443696   8.331604
    46  H    4.954605   9.163416   9.990782   9.615298   8.316038
    47  H    3.023743   8.073242   8.608848   7.948859   6.571988
    48  H    6.744235   2.146405   1.086328   2.164633   3.412445
                   31         32         33         34         35
    31  C    0.000000
    32  C    1.390489   0.000000
    33  C    2.434666   1.410304   0.000000
    34  C    2.836750   2.438660   1.393137   0.000000
    35  C    2.444556   2.788550   2.403460   1.402622   0.000000
    36  C    1.409163   2.416825   2.803143   2.459994   1.424132
    37  C    2.579734   3.795839   4.214913   3.663121   2.336551
    38  C    3.733404   4.745867   4.798168   3.866376   2.477113
    39  C    4.928931   6.064435   6.214263   5.291739   3.905658
    40  C    4.927338   6.230314   6.683746   6.005093   4.610503
    41  H    6.571990   7.948861   8.608851   8.073244   6.699392
    42  H    8.331605   9.443696   9.462562   8.374698   7.072136
    43  H    6.605612   7.516383   7.300089   6.098630   4.902741
    44  H    1.087303   2.158387   3.423391   3.923905   3.432447
    45  H    2.146959   1.086273   2.163227   3.415181   3.874555
    46  H    3.412445   2.164633   1.086328   2.146407   3.389656
    47  H    3.923441   3.426129   2.160256   1.086802   2.169053
    48  H    8.316037   9.615296   9.990781   9.163414   7.766190
                   36         37         38         39         40
    36  C    0.000000
    37  C    1.429564   0.000000
    38  C    2.361669   1.390818   0.000000
    39  C    3.647999   2.361670   1.429564   0.000000
    40  C    3.905657   2.477112   2.336551   1.424133   0.000000
    41  H    5.807610   4.430653   4.504973   3.447304   2.169054
    42  H    7.033813   5.760478   4.709883   3.402697   3.874558
    43  H    5.210461   4.221724   2.886940   2.166846   3.432447
    44  H    2.166848   2.886941   4.221724   5.210463   4.902740
    45  H    3.402696   4.709882   5.760477   7.033812   7.072134
    46  H    3.889214   5.300025   5.835413   7.259688   7.766190
    47  H    3.447303   4.504972   4.430651   5.807607   6.699390
    48  H    7.259688   5.835412   5.300024   3.889214   3.389656
                   41         42         43         44         45
    41  H    0.000000
    42  H    4.314058   0.000000
    43  H    5.010647   2.483523   0.000000
    44  H    6.248351   8.568619   7.097914   0.000000
    45  H    8.645583  10.430619   8.568617   2.483523   0.000000
    46  H    9.694165  10.459676   8.231747   4.313194   2.483787
    47  H    8.827034   8.645580   6.248347   5.010648   4.314058
    48  H    2.481240   2.483789   4.313193   8.231747  10.459675
                   46         47         48
    46  H    0.000000
    47  H    2.481244   0.000000
    48  H   11.061203   9.694162   0.000000
 Stoichiometry    C28H16S4
 Framework group  C1[X(C28H16S4)]
 Deg. of freedom   138
 Full point group                 C1      NOp   1
 Largest Abelian subgroup         C1      NOp   1
 Largest concise Abelian subgroup C1      NOp   1
                         Standard orientation:                         
 ---------------------------------------------------------------------
 Center     Atomic      Atomic             Coordinates (Angstroms)
 Number     Number       Type             X           Y           Z
 ---------------------------------------------------------------------
      1         16           0       -0.192554   -2.318024    2.055447
      2         16           0        1.772965   -2.383759   -1.665820
      3          6           0       -2.653143   -3.326695    1.138856
      4          6           0       -3.422851   -3.816734    0.086126
      5          6           0       -2.899623   -3.887489   -1.221614
      6          6           0       -1.586999   -3.510775   -1.483470
      7          6           0        3.167413   -1.191011    1.873100
      8          6           0        4.480035   -0.814295    1.611242
      9          6           0        5.003262   -0.885043    0.303501
     10          6           0        4.233552   -1.375077   -0.749230
     11          6           0        2.902872   -1.738192   -0.494697
     12          6           0        2.371958   -1.697866    0.826157
     13          6           0        1.009984   -2.132150    0.817264
     14          6           0        0.570428   -2.569633   -0.427635
     15          6           0       -0.791546   -3.003915   -0.436529
     16          6           0       -1.322462   -2.963582    0.884327
     17          1           0       -3.059695   -3.274285    2.145390
     18          1           0       -3.520128   -4.270602   -2.026715
     19          1           0       -1.185886   -3.562089   -2.492777
     20          1           0        2.766302   -1.139701    2.882409
     21          1           0        5.100544   -0.431191    2.416344
     22          1           0        6.032090   -0.588930    0.119273
     23          1           0        4.640101   -1.427486   -1.755764
     24          1           0       -4.451680   -4.112841    0.270355
     25         16           0       -1.161537    0.369109   -0.797733
     26         16           0       -0.418876    4.332671    0.408107
     27          6           0       -3.946504    0.429257   -0.407351
     28          6           0       -5.078361    1.132494   -0.000919
     29          6           0       -4.984126    2.475269    0.419835
     30          6           0       -3.751701    3.116232    0.481109
     31          6           0        2.171291    1.585546   -0.870731
     32          6           0        3.403715    2.226511   -0.809460
     33          6           0        3.497950    3.569289   -0.388713
     34          6           0        2.366091    4.272527    0.017714
     35          6           0        1.117984    3.637337   -0.060452
     36          6           0        1.013235    2.273455   -0.456692
     37          6           0       -0.356201    1.863760   -0.435518
     38          6           0       -1.224209    2.838019    0.045891
     39          6           0       -2.593646    2.428325    0.067065
     40          6           0       -2.698394    1.064444   -0.329182
     41          1           0       -4.023077   -0.605607   -0.730358
     42          1           0       -5.881284    3.003719    0.729413
     43          1           0       -3.680718    4.152691    0.801952
     44          1           0        2.100309    0.549085   -1.191571
     45          1           0        4.300874    1.698059   -1.119028
     46          1           0        4.470145    4.052003   -0.344761
     47          1           0        2.442662    5.307391    0.340720
     48          1           0       -6.050556    0.649780   -0.044876
 ---------------------------------------------------------------------
 Rotational constants (GHZ):           0.1328069           0.1272324           0.0744031
 Counterpoise: doing full-system calculation.
 Standard basis: 6-311G(d,p) (5D, 7F)
 There are   736 symmetry adapted cartesian basis functions of A   symmetry.
 There are   704 symmetry adapted basis functions of A   symmetry.
   704 basis functions,  1208 primitive gaussians,   736 cartesian basis functions
   124 alpha electrons      124 beta electrons
       nuclear repulsion energy      3749.3330748261 Hartrees.
 NAtoms=   48 NActive=   48 NUniq=   48 SFac= 1.00D+00 NAtFMM=   60 NAOKFM=F Big=F
 Integral buffers will be    131072 words long.
 Raffenetti 2 integral format.
 Two-electron integral symmetry is turned on.
 Nuclear repulsion after empirical dispersion term =     3749.2718063157 Hartrees.
 One-electron integrals computed using PRISM.
 NBasis=   704 RedAO= T EigKep=  1.61D-04  NBF=   704
 NBsUse=   704 1.00D-06 EigRej= -1.00D+00 NBFU=   704
 ExpMin= 7.71D-02 ExpMax= 9.34D+04 ExpMxC= 3.17D+03 IAcc=3 IRadAn=         5 AccDes= 0.00D+00
 Harris functional with IExCor=  402 and IRadAn=       5 diagonalized for initial guess.
 HarFok:  IExCor=  402 AccDes= 0.00D+00 IRadAn=         5 IDoV= 1 UseB2=F ITyADJ=14
 ICtDFT=  3500011 ScaDFX=  1.000000  1.000000  1.000000  1.000000
 FoFCou: FMM=F IPFlag=           0 FMFlag=      100000 FMFlg1=           0
         NFxFlg=           0 DoJE=T BraDBF=F KetDBF=T FulRan=T
         wScrn=  0.000000 ICntrl=       500 IOpCl=  0 I1Cent=   200000004 NGrid=           0
         NMat0=    1 NMatS0=      1 NMatT0=    0 NMatD0=    1 NMtDS0=    0 NMtDT0=    0
 Petite list used in FoFCou.
 Requested convergence on RMS density matrix=1.00D-08 within 128 cycles.
 Requested convergence on MAX density matrix=1.00D-06.
 Requested convergence on             energy=1.00D-06.
 No special actions if energy rises.
 Integral accuracy reduced to 1.0D-05 until final iterations.
 Initial convergence to 1.0D-05 achieved.  Increase integral accuracy.
 SCF Done:  E(RB3LYP) =  -2669.81040546     A.U. after   15 cycles
            NFock= 15  Conv=0.75D-08     -V/T= 2.0026

 **********************************************************************

            Population analysis using the SCF density.

 **********************************************************************

 Orbital symmetries:
       Occupied  (A) (A) (A) (A) (A) (A) (A) (A) (A) (A) (A) (A)
                 (A) (A) (A) (A) (A) (A) (A) (A) (A) (A) (A) (A)
                 (A) (A) (A) (A) (A) (A) (A) (A) (A) (A) (A) (A)
                 (A) (A) (A) (A) (A) (A) (A) (A) (A) (A) (A) (A)
                 (A) (A) (A) (A) (A) (A) (A) (A) (A) (A) (A) (A)
                 (A) (A) (A) (A) (A) (A) (A) (A) (A) (A) (A) (A)
                 (A) (A) (A) (A) (A) (A) (A) (A) (A) (A) (A) (A)
                 (A) (A) (A) (A) (A) (A) (A) (A) (A) (A) (A) (A)
                 (A) (A) (A) (A) (A) (A) (A) (A) (A) (A) (A) (A)
                 (A) (A) (A) (A) (A) (A) (A) (A) (A) (A) (A) (A)
                 (A) (A) (A) (A)
       Virtual   (A) (A) (A) (A) (A) (A) (A) (A) (A) (A) (A) (A)
                 (A) (A) (A) (A) (A) (A) (A) (A) (A) (A) (A) (A)
                 (A) (A) (A) (A) (A) (A) (A) (A) (A) (A) (A) (A)
                 (A) (A) (A) (A) (A) (A) (A) (A) (A) (A) (A) (A)
                 (A) (A) (A) (A) (A) (A) (A) (A) (A) (A) (A) (A)
                 (A) (A) (A) (A) (A) (A) (A) (A) (A) (A) (A) (A)
                 (A) (A) (A) (A) (A) (A) (A) (A) (A) (A) (A) (A)
                 (A) (A) (A) (A) (A) (A) (A) (A) (A) (A) (A) (A)
                 (A) (A) (A) (A) (A) (A) (A) (A) (A) (A) (A) (A)
                 (A) (A) (A) (A) (A) (A) (A) (A) (A) (A) (A) (A)
                 (A) (A) (A) (A) (A) (A) (A) (A) (A) (A) (A) (A)
                 (A) (A) (A) (A) (A) (A) (A) (A) (A) (A) (A) (A)
                 (A) (A) (A) (A) (A) (A) (A) (A) (A) (A) (A) (A)
                 (A) (A) (A) (A) (A) (A) (A) (A) (A) (A) (A) (A)
                 (A) (A) (A) (A) (A) (A) (A) (A) (A) (A) (A) (A)
                 (A) (A) (A) (A) (A) (A) (A) (A) (A) (A) (A) (A)
                 (A) (A) (A) (A) (A) (A) (A) (A) (A) (A) (A) (A)
                 (A) (A) (A) (A) (A) (A) (A) (A) (A) (A) (A) (A)
                 (A) (A) (A) (A) (A) (A) (A) (A) (A) (A) (A) (A)
                 (A) (A) (A) (A) (A) (A) (A) (A) (A) (A) (A) (A)
                 (A) (A) (A) (A) (A) (A) (A) (A) (A) (A) (A) (A)
                 (A) (A) (A) (A) (A) (A) (A) (A) (A) (A) (A) (A)
                 (A) (A) (A) (A) (A) (A) (A) (A) (A) (A) (A) (A)
                 (A) (A) (A) (A) (A) (A) (A) (A) (A) (A) (A) (A)
                 (A) (A) (A) (A) (A) (A) (A) (A) (A) (A) (A) (A)
                 (A) (A) (A) (A) (A) (A) (A) (A) (A) (A) (A) (A)
                 (A) (A) (A) (A) (A) (A) (A) (A) (A) (A) (A) (A)
                 (A) (A) (A) (A) (A) (A) (A) (A) (A) (A) (A) (A)
                 (A) (A) (A) (A) (A) (A) (A) (A) (A) (A) (A) (A)
                 (A) (A) (A) (A) (A) (A) (A) (A) (A) (A) (A) (A)
                 (A) (A) (A) (A) (A) (A) (A) (A) (A) (A) (A) (A)
                 (A) (A) (A) (A) (A) (A) (A) (A) (A) (A) (A) (A)
                 (A) (A) (A) (A) (A) (A) (A) (A) (A) (A) (A) (A)
                 (A) (A) (A) (A) (A) (A) (A) (A) (A) (A) (A) (A)
                 (A) (A) (A) (A) (A) (A) (A) (A) (A) (A) (A) (A)
                 (A) (A) (A) (A) (A) (A) (A) (A) (A) (A) (A) (A)
                 (A) (A) (A) (A) (A) (A) (A) (A) (A) (A) (A) (A)
                 (A) (A) (A) (A) (A) (A) (A) (A) (A) (A) (A) (A)
                 (A) (A) (A) (A) (A) (A) (A) (A) (A) (A) (A) (A)
                 (A) (A) (A) (A) (A) (A) (A) (A) (A) (A) (A) (A)
                 (A) (A) (A) (A) (A) (A) (A) (A) (A) (A) (A) (A)
                 (A) (A) (A) (A) (A) (A) (A) (A) (A) (A) (A) (A)
                 (A) (A) (A) (A) (A) (A) (A) (A) (A) (A) (A) (A)
                 (A) (A) (A) (A) (A) (A) (A) (A) (A) (A) (A) (A)
                 (A) (A) (A) (A) (A) (A) (A) (A) (A) (A) (A) (A)
                 (A) (A) (A) (A) (A) (A) (A) (A) (A) (A) (A) (A)
                 (A) (A) (A) (A) (A) (A) (A) (A) (A) (A) (A) (A)
                 (A) (A) (A) (A) (A) (A) (A) (A) (A) (A) (A) (A)
                 (A) (A) (A) (A)
 The electronic state is 1-A.
 Alpha  occ. eigenvalues --  -88.88537 -88.88306 -88.87425 -88.87148 -10.22130
 Alpha  occ. eigenvalues --  -10.22055 -10.21606 -10.21546 -10.21064 -10.20992
 Alpha  occ. eigenvalues --  -10.20530 -10.20467 -10.20380 -10.20333 -10.19405
 Alpha  occ. eigenvalues --  -10.19331 -10.19329 -10.19246 -10.19066 -10.19014
 Alpha  occ. eigenvalues --  -10.18792 -10.18774 -10.18635 -10.18572 -10.18344
 Alpha  occ. eigenvalues --  -10.18267 -10.18097 -10.17779 -10.17744 -10.17735
 Alpha  occ. eigenvalues --  -10.17673 -10.17450  -7.97187  -7.96950  -7.96083
 Alpha  occ. eigenvalues --   -7.95805  -5.93515  -5.93281  -5.93156  -5.92919
 Alpha  occ. eigenvalues --   -5.92687  -5.92448  -5.92412  -5.92134  -5.92054
 Alpha  occ. eigenvalues --   -5.91771  -5.91582  -5.91302  -0.92630  -0.91537
 Alpha  occ. eigenvalues --   -0.88558  -0.87470  -0.84473  -0.83415  -0.82402
 Alpha  occ. eigenvalues --   -0.81336  -0.78088  -0.77681  -0.77037  -0.76607
 Alpha  occ. eigenvalues --   -0.74266  -0.73208  -0.72453  -0.71408  -0.70317
 Alpha  occ. eigenvalues --   -0.69261  -0.64927  -0.63890  -0.61838  -0.60801
 Alpha  occ. eigenvalues --   -0.59680  -0.58773  -0.58642  -0.57742  -0.57286
 Alpha  occ. eigenvalues --   -0.56244  -0.51734  -0.50735  -0.50521  -0.49495
 Alpha  occ. eigenvalues --   -0.49397  -0.48377  -0.47802  -0.46929  -0.45952
 Alpha  occ. eigenvalues --   -0.45794  -0.45061  -0.44806  -0.44290  -0.43843
 Alpha  occ. eigenvalues --   -0.43664  -0.43148  -0.42602  -0.42329  -0.41141
 Alpha  occ. eigenvalues --   -0.40786  -0.40116  -0.39862  -0.39438  -0.38411
 Alpha  occ. eigenvalues --   -0.37595  -0.36944  -0.36594  -0.36492  -0.35916
 Alpha  occ. eigenvalues --   -0.35499  -0.35050  -0.34935  -0.34811  -0.34056
 Alpha  occ. eigenvalues --   -0.33863  -0.33720  -0.32801  -0.31858  -0.29159
 Alpha  occ. eigenvalues --   -0.28491  -0.28101  -0.27489  -0.25305  -0.24219
 Alpha  occ. eigenvalues --   -0.23238  -0.22170  -0.21433  -0.20379
 Alpha virt. eigenvalues --   -0.06026  -0.04915  -0.02749  -0.02019  -0.01620
 Alpha virt. eigenvalues --   -0.00906  -0.00779  -0.00005   0.00473   0.01210
 Alpha virt. eigenvalues --    0.01523   0.02643   0.03677   0.03823   0.04261
 Alpha virt. eigenvalues --    0.04749   0.04904   0.05521   0.06457   0.06989
 Alpha virt. eigenvalues --    0.07183   0.07546   0.07853   0.08861   0.09199
 Alpha virt. eigenvalues --    0.10404   0.10982   0.11913   0.12501   0.12631
 Alpha virt. eigenvalues --    0.12724   0.13062   0.13162   0.13404   0.13894
 Alpha virt. eigenvalues --    0.14146   0.14559   0.14959   0.15671   0.16008
 Alpha virt. eigenvalues --    0.16712   0.17247   0.18047   0.18810   0.19934
 Alpha virt. eigenvalues --    0.20908   0.21230   0.21722   0.22858   0.23004
 Alpha virt. eigenvalues --    0.23562   0.24242   0.24394   0.25166   0.26801
 Alpha virt. eigenvalues --    0.27294   0.27376   0.27797   0.28096   0.28218
 Alpha virt. eigenvalues --    0.28546   0.28984   0.29156   0.29374   0.29978
 Alpha virt. eigenvalues --    0.31816   0.32358   0.33666   0.33885   0.34871
 Alpha virt. eigenvalues --    0.35077   0.35302   0.36180   0.36636   0.36904
 Alpha virt. eigenvalues --    0.37940   0.37995   0.38205   0.38597   0.39005
 Alpha virt. eigenvalues --    0.39534   0.39922   0.40209   0.40604   0.40823
 Alpha virt. eigenvalues --    0.41091   0.41251   0.41585   0.41805   0.42104
 Alpha virt. eigenvalues --    0.42303   0.42824   0.43123   0.43299   0.43593
 Alpha virt. eigenvalues --    0.43749   0.44102   0.44316   0.44618   0.45038
 Alpha virt. eigenvalues --    0.45706   0.45991   0.46216   0.46317   0.46481
 Alpha virt. eigenvalues --    0.47255   0.48395   0.48678   0.48824   0.49309
 Alpha virt. eigenvalues --    0.49542   0.50614   0.50760   0.50969   0.51496
 Alpha virt. eigenvalues --    0.52363   0.52869   0.53728   0.53841   0.54192
 Alpha virt. eigenvalues --    0.55262   0.55495   0.56035   0.56706   0.57124
 Alpha virt. eigenvalues --    0.57901   0.58080   0.58145   0.58726   0.58969
 Alpha virt. eigenvalues --    0.59029   0.59467   0.59794   0.59850   0.60066
 Alpha virt. eigenvalues --    0.60813   0.60846   0.61272   0.61383   0.61830
 Alpha virt. eigenvalues --    0.62452   0.62614   0.63114   0.63522   0.64142
 Alpha virt. eigenvalues --    0.64572   0.65473   0.66335   0.67138   0.67559
 Alpha virt. eigenvalues --    0.68448   0.69394   0.69647   0.70101   0.70693
 Alpha virt. eigenvalues --    0.71113   0.71537   0.71780   0.72194   0.72405
 Alpha virt. eigenvalues --    0.72954   0.73287   0.73474   0.74292   0.74808
 Alpha virt. eigenvalues --    0.75180   0.75481   0.76018   0.76422   0.77261
 Alpha virt. eigenvalues --    0.77585   0.77743   0.78219   0.78700   0.79239
 Alpha virt. eigenvalues --    0.79844   0.79961   0.80779   0.80930   0.81395
 Alpha virt. eigenvalues --    0.82138   0.82239   0.83014   0.83758   0.84033
 Alpha virt. eigenvalues --    0.84462   0.84805   0.85926   0.86171   0.86972
 Alpha virt. eigenvalues --    0.87158   0.87368   0.87916   0.88707   0.89139
 Alpha virt. eigenvalues --    0.89779   0.90214   0.90754   0.91112   0.91785
 Alpha virt. eigenvalues --    0.92646   0.93486   0.93544   0.94344   0.94720
 Alpha virt. eigenvalues --    0.95797   0.96506   0.97285   0.97365   0.98346
 Alpha virt. eigenvalues --    0.98726   0.99140   0.99484   0.99674   1.00265
 Alpha virt. eigenvalues --    1.00647   1.00925   1.01810   1.02632   1.03242
 Alpha virt. eigenvalues --    1.04152   1.04517   1.05974   1.06883   1.07105
 Alpha virt. eigenvalues --    1.07595   1.08076   1.08486   1.09315   1.09551
 Alpha virt. eigenvalues --    1.09849   1.10156   1.10815   1.11021   1.11262
 Alpha virt. eigenvalues --    1.11657   1.11921   1.13609   1.15840   1.17366
 Alpha virt. eigenvalues --    1.18782   1.19919   1.20864   1.21533   1.21992
 Alpha virt. eigenvalues --    1.22906   1.23645   1.24773   1.25045   1.26359
 Alpha virt. eigenvalues --    1.28140   1.28600   1.29331   1.29545   1.30721
 Alpha virt. eigenvalues --    1.32213   1.34780   1.36005   1.38641   1.40326
 Alpha virt. eigenvalues --    1.41058   1.41501   1.41581   1.42954   1.43388
 Alpha virt. eigenvalues --    1.43843   1.44281   1.44829   1.45779   1.46637
 Alpha virt. eigenvalues --    1.47495   1.48381   1.48768   1.49139   1.49610
 Alpha virt. eigenvalues --    1.51007   1.52724   1.53387   1.53572   1.54162
 Alpha virt. eigenvalues --    1.54765   1.55770   1.56030   1.56676   1.57044
 Alpha virt. eigenvalues --    1.58390   1.58578   1.59267   1.59643   1.59847
 Alpha virt. eigenvalues --    1.60887   1.61016   1.61222   1.61396   1.61809
 Alpha virt. eigenvalues --    1.62449   1.62549   1.62987   1.63640   1.64170
 Alpha virt. eigenvalues --    1.65032   1.66413   1.67953   1.68554   1.69604
 Alpha virt. eigenvalues --    1.70351   1.70560   1.72099   1.72369   1.73164
 Alpha virt. eigenvalues --    1.73619   1.73669   1.74037   1.74541   1.75781
 Alpha virt. eigenvalues --    1.75867   1.76492   1.77133   1.80343   1.80639
 Alpha virt. eigenvalues --    1.81201   1.81556   1.82159   1.82549   1.82847
 Alpha virt. eigenvalues --    1.83097   1.83435   1.84257   1.84437   1.85434
 Alpha virt. eigenvalues --    1.86152   1.86494   1.87177   1.88290   1.88902
 Alpha virt. eigenvalues --    1.89399   1.89515   1.90001   1.90241   1.90409
 Alpha virt. eigenvalues --    1.90488   1.91168   1.91418   1.92110   1.92705
 Alpha virt. eigenvalues --    1.92884   1.93706   1.94374   1.94446   1.95116
 Alpha virt. eigenvalues --    1.95536   1.96031   1.96248   1.97350   1.97970
 Alpha virt. eigenvalues --    1.98267   1.99297   1.99941   2.00423   2.00726
 Alpha virt. eigenvalues --    2.01398   2.02162   2.02307   2.03176   2.03465
 Alpha virt. eigenvalues --    2.05059   2.05134   2.05980   2.07305   2.08096
 Alpha virt. eigenvalues --    2.08224   2.09631   2.10956   2.12294   2.13163
 Alpha virt. eigenvalues --    2.13693   2.14758   2.16928   2.23041   2.23529
 Alpha virt. eigenvalues --    2.26047   2.26340   2.26521   2.26919   2.27216
 Alpha virt. eigenvalues --    2.28107   2.29149   2.30523   2.32553   2.32905
 Alpha virt. eigenvalues --    2.33175   2.33428   2.33647   2.33733   2.33896
 Alpha virt. eigenvalues --    2.34564   2.35007   2.36125   2.37288   2.37572
 Alpha virt. eigenvalues --    2.38647   2.40140   2.41742   2.42263   2.47910
 Alpha virt. eigenvalues --    2.49237   2.52240   2.52760   2.53978   2.55960
 Alpha virt. eigenvalues --    2.56332   2.56638   2.57318   2.58037   2.58419
 Alpha virt. eigenvalues --    2.58628   2.60142   2.60432   2.60851   2.61319
 Alpha virt. eigenvalues --    2.61924   2.62435   2.63137   2.63559   2.64032
 Alpha virt. eigenvalues --    2.64852   2.65198   2.65755   2.65985   2.66056
 Alpha virt. eigenvalues --    2.66273   2.67279   2.67665   2.68904   2.68969
 Alpha virt. eigenvalues --    2.69559   2.69668   2.69967   2.71858   2.73073
 Alpha virt. eigenvalues --    2.73429   2.73680   2.74327   2.74968   2.76133
 Alpha virt. eigenvalues --    2.77649   2.79169   2.79871   2.80055   2.81086
 Alpha virt. eigenvalues --    2.81489   2.81855   2.82158   2.83049   2.83630
 Alpha virt. eigenvalues --    2.84615   2.84806   2.85918   2.86053   2.86843
 Alpha virt. eigenvalues --    2.88139   2.89971   2.91791   2.92659   2.94265
 Alpha virt. eigenvalues --    2.94699   2.97665   2.99542   3.04170   3.05080
 Alpha virt. eigenvalues --    3.05799   3.06857   3.08261   3.08942   3.11977
 Alpha virt. eigenvalues --    3.12240   3.16046   3.16777   3.17968   3.18545
 Alpha virt. eigenvalues --    3.23935   3.24261   3.25122   3.25781   3.30455
 Alpha virt. eigenvalues --    3.30555   3.31035   3.31584   3.32703   3.33283
 Alpha virt. eigenvalues --    3.35011   3.36209   3.38861   3.40110   3.43723
 Alpha virt. eigenvalues --    3.44387   3.45900   3.46814   3.46984   3.47847
 Alpha virt. eigenvalues --    3.51837   3.51881   3.55448   3.56367   3.56780
 Alpha virt. eigenvalues --    3.57073   3.63221   3.64570   3.77677   3.77890
 Alpha virt. eigenvalues --    3.83578   3.84240   3.98725   3.99783   4.00251
 Alpha virt. eigenvalues --    4.01229   4.01573   4.02770   4.04184   4.05236
 Alpha virt. eigenvalues --    4.11440   4.11693   4.13107   4.14813   4.20792
 Alpha virt. eigenvalues --    4.22099   4.54765   4.56309   4.79436   4.79553
 Alpha virt. eigenvalues --    4.80587   4.81113   7.81800   7.83434   7.87893
 Alpha virt. eigenvalues --    7.89699  17.20633  17.21198  17.22917  17.24112
 Alpha virt. eigenvalues --   17.44466  17.46170  17.51568  17.52657  17.52986
 Alpha virt. eigenvalues --   17.54175  17.54693  17.58047  23.37010  23.38173
 Alpha virt. eigenvalues --   23.55238  23.55670  23.69728  23.70698  23.85591
 Alpha virt. eigenvalues --   23.86267  23.86879  23.87126  23.90864  23.91001
 Alpha virt. eigenvalues --   23.92523  23.92936  23.98031  23.99129  24.00904
 Alpha virt. eigenvalues --   24.01929  24.03531  24.04546  24.06978  24.07100
 Alpha virt. eigenvalues --   24.08041  24.08297  24.14388  24.14485  24.15506
 Alpha virt. eigenvalues --   24.15835 188.92956 188.94939 189.00437 189.02728
          Condensed to atoms (all electrons):
               1          2          3          4          5          6
     1  S   15.366999   0.011970  -0.063500   0.006375  -0.000431   0.010668
     2  S    0.011970  15.393265  -0.000273   0.000004   0.000256   0.002885
     3  C   -0.063500  -0.000273   4.869120   0.506101  -0.039480  -0.055425
     4  C    0.006375   0.000004   0.506101   4.894590   0.485770  -0.049858
     5  C   -0.000431   0.000256  -0.039480   0.485770   4.894509   0.504438
     6  C    0.010668   0.002885  -0.055425  -0.049858   0.504438   4.887816
     7  C    0.002679   0.009492  -0.000001   0.000000  -0.000000  -0.000001
     8  C    0.000309   0.000127   0.000000  -0.000000   0.000000  -0.000000
     9  C   -0.000021   0.005652  -0.000000   0.000000  -0.000000   0.000000
    10  C   -0.000237  -0.059674   0.000000  -0.000000   0.000000  -0.000001
    11  C    0.009359   0.326120   0.000033  -0.000002   0.000002  -0.000288
    12  C   -0.071033  -0.099308  -0.000494   0.000026  -0.000016   0.000094
    13  C    0.326968  -0.087130  -0.000414  -0.000052  -0.000618   0.011518
    14  C   -0.093555   0.318425   0.017497  -0.001185   0.013373  -0.092896
    15  C   -0.087051  -0.073448   0.008869  -0.052803  -0.029787   0.482744
    16  C    0.318806   0.009648   0.437707  -0.045525  -0.056550  -0.039494
    17  H   -0.003361   0.000021   0.420315  -0.037366   0.007390  -0.000638
    18  H    0.000099  -0.000006   0.007012  -0.041931   0.412420  -0.038008
    19  H   -0.000576   0.003263  -0.000980   0.007599  -0.040128   0.421282
    20  H    0.003001  -0.000632  -0.000003   0.000000  -0.000000   0.000000
    21  H   -0.000001   0.000108   0.000000  -0.000000  -0.000000   0.000000
    22  H   -0.000003  -0.000414  -0.000000   0.000000   0.000000   0.000000
    23  H    0.000022  -0.003010   0.000000  -0.000000   0.000000  -0.000000
    24  H   -0.000371  -0.000003  -0.041057   0.415016  -0.043176   0.007604
    25  S   -0.009352  -0.004441  -0.001709  -0.000413  -0.000261   0.000046
    26  S   -0.000050   0.000006  -0.000000  -0.000000   0.000000   0.000000
    27  C    0.000091  -0.000013   0.000399  -0.000832  -0.000675   0.000149
    28  C    0.000017  -0.000001  -0.000074  -0.000089   0.000001   0.000014
    29  C   -0.000009   0.000000  -0.000002   0.000000  -0.000000  -0.000000
    30  C   -0.000015  -0.000001  -0.000001  -0.000000   0.000000   0.000000
    31  C   -0.000056  -0.005779  -0.000000   0.000000  -0.000000  -0.000000
    32  C   -0.000008   0.000467  -0.000000   0.000000  -0.000000  -0.000000
    33  C   -0.000001   0.000035   0.000000  -0.000000   0.000000  -0.000000
    34  C   -0.000000  -0.000009  -0.000000   0.000000  -0.000000   0.000000
    35  C   -0.000030  -0.000022  -0.000000   0.000000   0.000000   0.000000
    36  C    0.000219  -0.000830   0.000001  -0.000000   0.000000   0.000000
    37  C   -0.000106   0.000147  -0.000001  -0.000004   0.000004   0.000029
    38  C    0.000237   0.000067   0.000001   0.000000  -0.000000  -0.000002
    39  C    0.000008  -0.000035   0.000015   0.000005   0.000002  -0.000001
    40  C   -0.000167   0.000072   0.000380   0.000126   0.000077  -0.000152
    41  H    0.000001   0.000004   0.000359   0.003003   0.002281   0.000054
    42  H   -0.000000   0.000000   0.000000   0.000000   0.000000  -0.000000
    43  H    0.000001  -0.000000  -0.000000  -0.000000  -0.000000   0.000000
    44  H   -0.000045   0.003515   0.000002  -0.000000   0.000000  -0.000007
    45  H   -0.000001  -0.000305  -0.000000   0.000000  -0.000000  -0.000000
    46  H    0.000000   0.000003   0.000000  -0.000000  -0.000000  -0.000000
    47  H    0.000000  -0.000000  -0.000000   0.000000  -0.000000   0.000000
    48  H   -0.000000  -0.000000   0.000016   0.000019   0.000002  -0.000000
               7          8          9         10         11         12
     1  S    0.002679   0.000309  -0.000021  -0.000237   0.009359  -0.071033
     2  S    0.009492   0.000127   0.005652  -0.059674   0.326120  -0.099308
     3  C   -0.000001   0.000000  -0.000000   0.000000   0.000033  -0.000494
     4  C    0.000000  -0.000000   0.000000  -0.000000  -0.000002   0.000026
     5  C   -0.000000   0.000000  -0.000000   0.000000   0.000002  -0.000016
     6  C   -0.000001  -0.000000   0.000000  -0.000001  -0.000288   0.000094
     7  C    4.863101   0.511418  -0.050908  -0.050300  -0.041517   0.487083
     8  C    0.511418   4.869119   0.489451  -0.040263  -0.056549  -0.029179
     9  C   -0.050908   0.489451   4.888082   0.510098  -0.051436  -0.049790
    10  C   -0.050300  -0.040263   0.510098   4.872851   0.437944  -0.000313
    11  C   -0.041517  -0.056549  -0.051436   0.437944   5.484950   0.385748
    12  C    0.487083  -0.029179  -0.049790  -0.000313   0.385748   4.949211
    13  C   -0.088855   0.013454  -0.001108   0.015976  -0.093945   0.396412
    14  C    0.011274  -0.000678  -0.000038   0.000046  -0.095317  -0.016837
    15  C    0.000087  -0.000020   0.000028  -0.000525   0.002230   0.021209
    16  C   -0.000310   0.000002  -0.000002   0.000033   0.000001   0.003243
    17  H   -0.000000   0.000000  -0.000000   0.000000   0.000001  -0.000007
    18  H    0.000000  -0.000000  -0.000000   0.000000  -0.000000   0.000000
    19  H    0.000000  -0.000000   0.000000  -0.000003  -0.000078   0.000009
    20  H    0.420548  -0.039328   0.007679  -0.000914   0.008974  -0.045497
    21  H   -0.037141   0.411092  -0.041750   0.006943   0.000251   0.007470
    22  H    0.007486  -0.041753   0.414646  -0.042674   0.008901  -0.000277
    23  H   -0.000697   0.007500  -0.038147   0.422428  -0.048522   0.007344
    24  H    0.000000   0.000000   0.000000  -0.000000  -0.000000  -0.000000
    25  S   -0.000014   0.000022   0.000032  -0.000034  -0.002334  -0.000485
    26  S    0.000007  -0.000000  -0.000000   0.000000   0.000006   0.000005
    27  C    0.000000  -0.000000  -0.000000  -0.000000  -0.000000   0.000000
    28  C    0.000000  -0.000000  -0.000000   0.000000   0.000000   0.000000
    29  C    0.000000   0.000000  -0.000000  -0.000000   0.000000  -0.000000
    30  C   -0.000000  -0.000000   0.000000   0.000000   0.000000   0.000000
    31  C    0.002075   0.000009   0.001663  -0.002091  -0.010678  -0.003162
    32  C    0.000296   0.000101  -0.004594  -0.003392   0.000620  -0.000011
    33  C   -0.000016  -0.000102  -0.000426  -0.000084   0.000113   0.000047
    34  C   -0.000009   0.000004   0.000011   0.000004  -0.000015  -0.000004
    35  C    0.000002  -0.000004  -0.000017  -0.000003   0.000028   0.000012
    36  C    0.000075  -0.000077   0.000246   0.000192  -0.000291   0.000026
    37  C   -0.000025  -0.000006   0.000001  -0.000005   0.000037  -0.000035
    38  C   -0.000002  -0.000000  -0.000000  -0.000000  -0.000002   0.000000
    39  C   -0.000000  -0.000000   0.000000   0.000000  -0.000000   0.000003
    40  C   -0.000000   0.000000  -0.000000   0.000000   0.000001  -0.000026
    41  H   -0.000000   0.000000   0.000000  -0.000000  -0.000000  -0.000001
    42  H    0.000000   0.000000  -0.000000  -0.000000  -0.000000  -0.000000
    43  H    0.000000  -0.000000   0.000000  -0.000000  -0.000000   0.000000
    44  H   -0.001758  -0.000506  -0.002401  -0.001023   0.001643  -0.000403
    45  H   -0.000350  -0.000065   0.006001   0.004969  -0.000745  -0.000323
    46  H    0.000005   0.000012  -0.000033  -0.000012   0.000002   0.000002
    47  H   -0.000000   0.000000   0.000001   0.000000  -0.000000  -0.000000
    48  H   -0.000000  -0.000000   0.000000   0.000000  -0.000000   0.000000
              13         14         15         16         17         18
     1  S    0.326968  -0.093555  -0.087051   0.318806  -0.003361   0.000099
     2  S   -0.087130   0.318425  -0.073448   0.009648   0.000021  -0.000006
     3  C   -0.000414   0.017497   0.008869   0.437707   0.420315   0.007012
     4  C   -0.000052  -0.001185  -0.052803  -0.045525  -0.037366  -0.041931
     5  C   -0.000618   0.013373  -0.029787  -0.056550   0.007390   0.412420
     6  C    0.011518  -0.092896   0.482744  -0.039494  -0.000638  -0.038008
     7  C   -0.088855   0.011274   0.000087  -0.000310  -0.000000   0.000000
     8  C    0.013454  -0.000678  -0.000020   0.000002   0.000000  -0.000000
     9  C   -0.001108  -0.000038   0.000028  -0.000002  -0.000000  -0.000000
    10  C    0.015976   0.000046  -0.000525   0.000033   0.000000   0.000000
    11  C   -0.093945  -0.095317   0.002230   0.000001   0.000001  -0.000000
    12  C    0.396412  -0.016837   0.021209   0.003243  -0.000007   0.000000
    13  C    5.435516   0.361976  -0.012189  -0.091158  -0.000080   0.000017
    14  C    0.361976   5.472602   0.377268  -0.096416  -0.000340  -0.000462
    15  C   -0.012189   0.377268   4.984330   0.407204   0.007310   0.007566
    16  C   -0.091158  -0.096416   0.407204   5.380366  -0.046461   0.000211
    17  H   -0.000080  -0.000340   0.007310  -0.046461   0.561502  -0.000312
    18  H    0.000017  -0.000462   0.007566   0.000211  -0.000312   0.568771
    19  H    0.000041  -0.011875  -0.044439   0.009162   0.000061  -0.007613
    20  H   -0.011952   0.000122   0.000013  -0.000092   0.000000   0.000000
    21  H   -0.000465   0.000016  -0.000000  -0.000000  -0.000000   0.000000
    22  H   -0.000002   0.000010  -0.000000  -0.000000   0.000000   0.000000
    23  H   -0.000300  -0.000106  -0.000010   0.000001   0.000000  -0.000000
    24  H    0.000010  -0.000002  -0.000371   0.008839  -0.007735  -0.007412
    25  S   -0.003774  -0.011963   0.002862  -0.007948  -0.000037   0.000001
    26  S   -0.000008  -0.000001   0.000000  -0.000000  -0.000000   0.000000
    27  C   -0.000015  -0.000054   0.000351   0.000438   0.000106   0.000008
    28  C   -0.000000  -0.000001   0.000012   0.000006   0.000021  -0.000000
    29  C    0.000000   0.000000  -0.000000   0.000000  -0.000001   0.000000
    30  C    0.000000   0.000000   0.000001   0.000000  -0.000000   0.000000
    31  C   -0.000202   0.001177   0.000032  -0.000009  -0.000000  -0.000000
    32  C    0.000038   0.000029  -0.000000  -0.000000  -0.000000   0.000000
    33  C   -0.000001  -0.000001  -0.000000   0.000000   0.000000   0.000000
    34  C    0.000001   0.000000   0.000000  -0.000000  -0.000000  -0.000000
    35  C    0.000002  -0.000005  -0.000000  -0.000000  -0.000000   0.000000
    36  C   -0.000154  -0.000133  -0.000024   0.000009   0.000000   0.000000
    37  C    0.000406   0.000291   0.000140   0.000036   0.000001   0.000000
    38  C   -0.000021  -0.000000  -0.000011  -0.000000   0.000000  -0.000000
    39  C    0.000002  -0.000005   0.000003  -0.000019  -0.000001   0.000000
    40  C    0.000086   0.000505  -0.000387  -0.000084   0.000006  -0.000000
    41  H    0.000014   0.000020  -0.000589  -0.001140   0.000031   0.000059
    42  H    0.000000   0.000000  -0.000000   0.000000  -0.000000  -0.000000
    43  H   -0.000000  -0.000000  -0.000000  -0.000000   0.000000   0.000000
    44  H   -0.000010  -0.004193  -0.000160   0.000008   0.000000  -0.000000
    45  H    0.000007   0.000027   0.000000  -0.000000  -0.000000  -0.000000
    46  H   -0.000000  -0.000000  -0.000000   0.000000   0.000000   0.000000
    47  H    0.000000   0.000000   0.000000  -0.000000  -0.000000  -0.000000
    48  H   -0.000000   0.000000   0.000000   0.000001   0.000001  -0.000000
              19         20         21         22         23         24
     1  S   -0.000576   0.003001  -0.000001  -0.000003   0.000022  -0.000371
     2  S    0.003263  -0.000632   0.000108  -0.000414  -0.003010  -0.000003
     3  C   -0.000980  -0.000003   0.000000  -0.000000   0.000000  -0.041057
     4  C    0.007599   0.000000  -0.000000   0.000000  -0.000000   0.415016
     5  C   -0.040128  -0.000000  -0.000000   0.000000   0.000000  -0.043176
     6  C    0.421282   0.000000   0.000000   0.000000  -0.000000   0.007604
     7  C    0.000000   0.420548  -0.037141   0.007486  -0.000697   0.000000
     8  C   -0.000000  -0.039328   0.411092  -0.041753   0.007500   0.000000
     9  C    0.000000   0.007679  -0.041750   0.414646  -0.038147   0.000000
    10  C   -0.000003  -0.000914   0.006943  -0.042674   0.422428  -0.000000
    11  C   -0.000078   0.008974   0.000251   0.008901  -0.048522  -0.000000
    12  C    0.000009  -0.045497   0.007470  -0.000277   0.007344  -0.000000
    13  C    0.000041  -0.011952  -0.000465  -0.000002  -0.000300   0.000010
    14  C   -0.011875   0.000122   0.000016   0.000010  -0.000106  -0.000002
    15  C   -0.044439   0.000013  -0.000000  -0.000000  -0.000010  -0.000371
    16  C    0.009162  -0.000092  -0.000000  -0.000000   0.000001   0.008839
    17  H    0.000061   0.000000  -0.000000   0.000000   0.000000  -0.007735
    18  H   -0.007613   0.000000   0.000000   0.000000  -0.000000  -0.007412
    19  H    0.567711   0.000000   0.000000  -0.000000   0.000000  -0.000304
    20  H    0.000000   0.567945  -0.007598  -0.000302   0.000059   0.000000
    21  H    0.000000  -0.007598   0.569296  -0.007380  -0.000312   0.000000
    22  H   -0.000000  -0.000302  -0.007380   0.569240  -0.007819  -0.000000
    23  H    0.000000   0.000059  -0.000312  -0.007819   0.562383   0.000000
    24  H   -0.000304   0.000000   0.000000  -0.000000   0.000000   0.568482
    25  S    0.000142   0.000022   0.000000   0.000001   0.000003   0.000014
    26  S   -0.000000   0.000003   0.000000   0.000000  -0.000000   0.000000
    27  C    0.000009   0.000000  -0.000000   0.000000  -0.000000   0.000047
    28  C    0.000000  -0.000000  -0.000000   0.000000  -0.000000   0.000009
    29  C    0.000000  -0.000000   0.000000  -0.000000   0.000000   0.000000
    30  C    0.000000   0.000000  -0.000000   0.000000  -0.000000  -0.000000
    31  C    0.000000   0.000127   0.000016   0.000046  -0.000101  -0.000000
    32  C   -0.000000   0.000028   0.000110   0.000059   0.000119  -0.000000
    33  C   -0.000000  -0.000005   0.000032   0.000012   0.000002   0.000000
    34  C    0.000000  -0.000001  -0.000000  -0.000001   0.000000  -0.000000
    35  C   -0.000000  -0.000000  -0.000001  -0.000001   0.000000  -0.000000
    36  C   -0.000000   0.000027  -0.000008   0.000002  -0.000006   0.000000
    37  C   -0.000005  -0.000013  -0.000000  -0.000000  -0.000001   0.000000
    38  C    0.000000  -0.000001   0.000000  -0.000000   0.000000  -0.000000
    39  C   -0.000000   0.000000  -0.000000   0.000000  -0.000000  -0.000000
    40  C   -0.000009   0.000000   0.000000  -0.000000   0.000000  -0.000003
    41  H    0.000014  -0.000000   0.000000  -0.000000  -0.000000   0.000078
    42  H   -0.000000  -0.000000   0.000000   0.000000   0.000000  -0.000000
    43  H    0.000000   0.000000  -0.000000   0.000000  -0.000000   0.000000
    44  H    0.000002   0.000002   0.000022   0.000024   0.000105   0.000000
    45  H   -0.000000   0.000003  -0.000031   0.000219   0.000297   0.000000
    46  H    0.000000  -0.000000   0.000002   0.000004  -0.000001   0.000000
    47  H    0.000000   0.000000  -0.000000  -0.000000  -0.000000   0.000000
    48  H   -0.000000   0.000000  -0.000000  -0.000000   0.000000   0.000003
              25         26         27         28         29         30
     1  S   -0.009352  -0.000050   0.000091   0.000017  -0.000009  -0.000015
     2  S   -0.004441   0.000006  -0.000013  -0.000001   0.000000  -0.000001
     3  C   -0.001709  -0.000000   0.000399  -0.000074  -0.000002  -0.000001
     4  C   -0.000413  -0.000000  -0.000832  -0.000089   0.000000  -0.000000
     5  C   -0.000261   0.000000  -0.000675   0.000001  -0.000000   0.000000
     6  C    0.000046   0.000000   0.000149   0.000014  -0.000000   0.000000
     7  C   -0.000014   0.000007   0.000000   0.000000   0.000000  -0.000000
     8  C    0.000022  -0.000000  -0.000000  -0.000000   0.000000  -0.000000
     9  C    0.000032  -0.000000  -0.000000  -0.000000  -0.000000   0.000000
    10  C   -0.000034   0.000000  -0.000000   0.000000  -0.000000   0.000000
    11  C   -0.002334   0.000006  -0.000000   0.000000   0.000000   0.000000
    12  C   -0.000485   0.000005   0.000000   0.000000  -0.000000   0.000000
    13  C   -0.003774  -0.000008  -0.000015  -0.000000   0.000000   0.000000
    14  C   -0.011963  -0.000001  -0.000054  -0.000001   0.000000   0.000000
    15  C    0.002862   0.000000   0.000351   0.000012  -0.000000   0.000001
    16  C   -0.007948  -0.000000   0.000438   0.000006   0.000000   0.000000
    17  H   -0.000037  -0.000000   0.000106   0.000021  -0.000001  -0.000000
    18  H    0.000001   0.000000   0.000008  -0.000000   0.000000   0.000000
    19  H    0.000142  -0.000000   0.000009   0.000000   0.000000   0.000000
    20  H    0.000022   0.000003   0.000000  -0.000000  -0.000000   0.000000
    21  H    0.000000   0.000000  -0.000000  -0.000000   0.000000  -0.000000
    22  H    0.000001   0.000000   0.000000   0.000000  -0.000000   0.000000
    23  H    0.000003  -0.000000  -0.000000  -0.000000   0.000000  -0.000000
    24  H    0.000014   0.000000   0.000047   0.000009   0.000000  -0.000000
    25  S   15.389274   0.009188  -0.063311   0.006173  -0.000357   0.009780
    26  S    0.009188  15.383841  -0.000207  -0.000029   0.000310   0.002612
    27  C   -0.063311  -0.000207   4.870900   0.506860  -0.038364  -0.056556
    28  C    0.006173  -0.000029   0.506860   4.895326   0.488858  -0.048926
    29  C   -0.000357   0.000310  -0.038364   0.488858   4.884350   0.508308
    30  C    0.009780   0.002612  -0.056556  -0.048926   0.508308   4.887263
    31  C    0.001153   0.010018  -0.000001  -0.000000  -0.000000  -0.000002
    32  C    0.000346  -0.000257   0.000000  -0.000000   0.000000  -0.000000
    33  C   -0.000081   0.006190  -0.000000   0.000000  -0.000000   0.000000
    34  C   -0.000096  -0.063018   0.000000  -0.000000   0.000000  -0.000000
    35  C    0.007874   0.305445   0.000033  -0.000002   0.000002  -0.000293
    36  C   -0.071927  -0.087464  -0.000516   0.000025  -0.000016  -0.000008
    37  C    0.295928  -0.093381  -0.000587  -0.000014  -0.000611   0.011271
    38  C   -0.096337   0.315565   0.018041  -0.001252   0.013554  -0.090939
    39  C   -0.093404  -0.070754   0.009666  -0.052960  -0.027634   0.478995
    40  C    0.285687   0.009161   0.444014  -0.045622  -0.055943  -0.044277
    41  H   -0.003496   0.000018   0.415199  -0.039000   0.007240  -0.000717
    42  H    0.000124  -0.000003   0.007115  -0.042600   0.411362  -0.038589
    43  H   -0.000687   0.003309  -0.000957   0.007630  -0.040240   0.419194
    44  H    0.004842  -0.000654  -0.000004  -0.000000  -0.000000  -0.000001
    45  H    0.000004   0.000110  -0.000000   0.000000  -0.000000   0.000000
    46  H   -0.000003  -0.000373  -0.000000   0.000000   0.000000   0.000000
    47  H    0.000025  -0.003362   0.000000  -0.000000   0.000000  -0.000000
    48  H   -0.000368  -0.000003  -0.041930   0.414348  -0.043640   0.007770
              31         32         33         34         35         36
     1  S   -0.000056  -0.000008  -0.000001  -0.000000  -0.000030   0.000219
     2  S   -0.005779   0.000467   0.000035  -0.000009  -0.000022  -0.000830
     3  C   -0.000000  -0.000000   0.000000  -0.000000  -0.000000   0.000001
     4  C    0.000000   0.000000  -0.000000   0.000000   0.000000  -0.000000
     5  C   -0.000000  -0.000000   0.000000  -0.000000   0.000000   0.000000
     6  C   -0.000000  -0.000000  -0.000000   0.000000   0.000000   0.000000
     7  C    0.002075   0.000296  -0.000016  -0.000009   0.000002   0.000075
     8  C    0.000009   0.000101  -0.000102   0.000004  -0.000004  -0.000077
     9  C    0.001663  -0.004594  -0.000426   0.000011  -0.000017   0.000246
    10  C   -0.002091  -0.003392  -0.000084   0.000004  -0.000003   0.000192
    11  C   -0.010678   0.000620   0.000113  -0.000015   0.000028  -0.000291
    12  C   -0.003162  -0.000011   0.000047  -0.000004   0.000012   0.000026
    13  C   -0.000202   0.000038  -0.000001   0.000001   0.000002  -0.000154
    14  C    0.001177   0.000029  -0.000001   0.000000  -0.000005  -0.000133
    15  C    0.000032  -0.000000  -0.000000   0.000000  -0.000000  -0.000024
    16  C   -0.000009  -0.000000   0.000000  -0.000000  -0.000000   0.000009
    17  H   -0.000000  -0.000000   0.000000  -0.000000  -0.000000   0.000000
    18  H   -0.000000   0.000000   0.000000  -0.000000   0.000000   0.000000
    19  H    0.000000  -0.000000  -0.000000   0.000000  -0.000000  -0.000000
    20  H    0.000127   0.000028  -0.000005  -0.000001  -0.000000   0.000027
    21  H    0.000016   0.000110   0.000032  -0.000000  -0.000001  -0.000008
    22  H    0.000046   0.000059   0.000012  -0.000001  -0.000001   0.000002
    23  H   -0.000101   0.000119   0.000002   0.000000   0.000000  -0.000006
    24  H   -0.000000  -0.000000   0.000000  -0.000000  -0.000000   0.000000
    25  S    0.001153   0.000346  -0.000081  -0.000096   0.007874  -0.071927
    26  S    0.010018  -0.000257   0.006190  -0.063018   0.305445  -0.087464
    27  C   -0.000001   0.000000  -0.000000   0.000000   0.000033  -0.000516
    28  C   -0.000000  -0.000000   0.000000  -0.000000  -0.000002   0.000025
    29  C   -0.000000   0.000000  -0.000000   0.000000   0.000002  -0.000016
    30  C   -0.000002  -0.000000   0.000000  -0.000000  -0.000293  -0.000008
    31  C    4.899065   0.491428  -0.039611  -0.063253  -0.035647   0.470183
    32  C    0.491428   4.915664   0.476332  -0.031256  -0.063012  -0.008028
    33  C   -0.039611   0.476332   4.898311   0.501808  -0.041773  -0.059790
    34  C   -0.063253  -0.031256   0.501808   4.880110   0.433254   0.016795
    35  C   -0.035647  -0.063012  -0.041773   0.433254   5.402543   0.399856
    36  C    0.470183  -0.008028  -0.059790   0.016795   0.399856   4.982321
    37  C   -0.091852   0.015935  -0.001698   0.018851  -0.104064   0.393917
    38  C    0.012203  -0.000690   0.000008  -0.000584  -0.087782  -0.007836
    39  C    0.000058  -0.000018   0.000027  -0.000514   0.003607   0.021228
    40  C   -0.000253   0.000004  -0.000002   0.000034  -0.000097   0.003895
    41  H   -0.000000   0.000000  -0.000000   0.000000   0.000001  -0.000009
    42  H    0.000000  -0.000000  -0.000000   0.000000  -0.000000  -0.000000
    43  H    0.000000  -0.000000   0.000000  -0.000003  -0.000110   0.000020
    44  H    0.410935  -0.048244   0.009330  -0.001847   0.010763  -0.053733
    45  H   -0.039105   0.409436  -0.046263   0.007731  -0.000167   0.008903
    46  H    0.008047  -0.043972   0.414633  -0.042580   0.009162  -0.000494
    47  H   -0.000680   0.007586  -0.037849   0.419700  -0.047954   0.007352
    48  H    0.000000   0.000000   0.000000  -0.000000  -0.000000  -0.000000
              37         38         39         40         41         42
     1  S   -0.000106   0.000237   0.000008  -0.000167   0.000001  -0.000000
     2  S    0.000147   0.000067  -0.000035   0.000072   0.000004   0.000000
     3  C   -0.000001   0.000001   0.000015   0.000380   0.000359   0.000000
     4  C   -0.000004   0.000000   0.000005   0.000126   0.003003   0.000000
     5  C    0.000004  -0.000000   0.000002   0.000077   0.002281   0.000000
     6  C    0.000029  -0.000002  -0.000001  -0.000152   0.000054  -0.000000
     7  C   -0.000025  -0.000002  -0.000000  -0.000000  -0.000000   0.000000
     8  C   -0.000006  -0.000000  -0.000000   0.000000   0.000000   0.000000
     9  C    0.000001  -0.000000   0.000000  -0.000000   0.000000  -0.000000
    10  C   -0.000005  -0.000000   0.000000   0.000000  -0.000000  -0.000000
    11  C    0.000037  -0.000002  -0.000000   0.000001  -0.000000  -0.000000
    12  C   -0.000035   0.000000   0.000003  -0.000026  -0.000001  -0.000000
    13  C    0.000406  -0.000021   0.000002   0.000086   0.000014   0.000000
    14  C    0.000291  -0.000000  -0.000005   0.000505   0.000020   0.000000
    15  C    0.000140  -0.000011   0.000003  -0.000387  -0.000589  -0.000000
    16  C    0.000036  -0.000000  -0.000019  -0.000084  -0.001140   0.000000
    17  H    0.000001   0.000000  -0.000001   0.000006   0.000031  -0.000000
    18  H    0.000000  -0.000000   0.000000  -0.000000   0.000059  -0.000000
    19  H   -0.000005   0.000000  -0.000000  -0.000009   0.000014  -0.000000
    20  H   -0.000013  -0.000001   0.000000   0.000000  -0.000000  -0.000000
    21  H   -0.000000   0.000000  -0.000000   0.000000   0.000000   0.000000
    22  H   -0.000000  -0.000000   0.000000  -0.000000  -0.000000   0.000000
    23  H   -0.000001   0.000000  -0.000000   0.000000  -0.000000   0.000000
    24  H    0.000000  -0.000000  -0.000000  -0.000003   0.000078  -0.000000
    25  S    0.295928  -0.096337  -0.093404   0.285687  -0.003496   0.000124
    26  S   -0.093381   0.315565  -0.070754   0.009161   0.000018  -0.000003
    27  C   -0.000587   0.018041   0.009666   0.444014   0.415199   0.007115
    28  C   -0.000014  -0.001252  -0.052960  -0.045622  -0.039000  -0.042600
    29  C   -0.000611   0.013554  -0.027634  -0.055943   0.007240   0.411362
    30  C    0.011271  -0.090939   0.478995  -0.044277  -0.000717  -0.038589
    31  C   -0.091852   0.012203   0.000058  -0.000253  -0.000000   0.000000
    32  C    0.015935  -0.000690  -0.000018   0.000004   0.000000  -0.000000
    33  C   -0.001698   0.000008   0.000027  -0.000002  -0.000000  -0.000000
    34  C    0.018851  -0.000584  -0.000514   0.000034   0.000000   0.000000
    35  C   -0.104064  -0.087782   0.003607  -0.000097   0.000001  -0.000000
    36  C    0.393917  -0.007836   0.021228   0.003895  -0.000009  -0.000000
    37  C    5.491742   0.362130  -0.013147  -0.077080  -0.000169   0.000015
    38  C    0.362130   5.472536   0.392985  -0.098238  -0.000261  -0.000468
    39  C   -0.013147   0.392985   4.956803   0.413227   0.007376   0.007642
    40  C   -0.077080  -0.098238   0.413227   5.423801  -0.043134   0.000240
    41  H   -0.000169  -0.000261   0.007376  -0.043134   0.551790  -0.000307
    42  H    0.000015  -0.000468   0.007642   0.000240  -0.000307   0.576221
    43  H    0.000098  -0.012284  -0.045103   0.009066   0.000060  -0.007755
    44  H   -0.017206   0.000289   0.000026  -0.000245   0.000001   0.000000
    45  H   -0.000412   0.000018  -0.000000  -0.000000  -0.000000   0.000000
    46  H   -0.000005   0.000010  -0.000000  -0.000000   0.000000   0.000000
    47  H   -0.000330  -0.000118  -0.000008   0.000001   0.000000  -0.000000
    48  H    0.000010  -0.000004  -0.000353   0.009042  -0.007585  -0.007654
              43         44         45         46         47         48
     1  S    0.000001  -0.000045  -0.000001   0.000000   0.000000  -0.000000
     2  S   -0.000000   0.003515  -0.000305   0.000003  -0.000000  -0.000000
     3  C   -0.000000   0.000002  -0.000000   0.000000  -0.000000   0.000016
     4  C   -0.000000  -0.000000   0.000000  -0.000000   0.000000   0.000019
     5  C   -0.000000   0.000000  -0.000000  -0.000000  -0.000000   0.000002
     6  C    0.000000  -0.000007  -0.000000  -0.000000   0.000000  -0.000000
     7  C    0.000000  -0.001758  -0.000350   0.000005  -0.000000  -0.000000
     8  C   -0.000000  -0.000506  -0.000065   0.000012   0.000000  -0.000000
     9  C    0.000000  -0.002401   0.006001  -0.000033   0.000001   0.000000
    10  C   -0.000000  -0.001023   0.004969  -0.000012   0.000000   0.000000
    11  C   -0.000000   0.001643  -0.000745   0.000002  -0.000000  -0.000000
    12  C    0.000000  -0.000403  -0.000323   0.000002  -0.000000   0.000000
    13  C   -0.000000  -0.000010   0.000007  -0.000000   0.000000  -0.000000
    14  C   -0.000000  -0.004193   0.000027  -0.000000   0.000000   0.000000
    15  C   -0.000000  -0.000160   0.000000  -0.000000   0.000000   0.000000
    16  C   -0.000000   0.000008  -0.000000   0.000000  -0.000000   0.000001
    17  H    0.000000   0.000000  -0.000000   0.000000  -0.000000   0.000001
    18  H    0.000000  -0.000000  -0.000000   0.000000  -0.000000  -0.000000
    19  H    0.000000   0.000002  -0.000000   0.000000   0.000000  -0.000000
    20  H    0.000000   0.000002   0.000003  -0.000000   0.000000   0.000000
    21  H   -0.000000   0.000022  -0.000031   0.000002  -0.000000  -0.000000
    22  H    0.000000   0.000024   0.000219   0.000004  -0.000000  -0.000000
    23  H   -0.000000   0.000105   0.000297  -0.000001  -0.000000   0.000000
    24  H    0.000000   0.000000   0.000000   0.000000   0.000000   0.000003
    25  S   -0.000687   0.004842   0.000004  -0.000003   0.000025  -0.000368
    26  S    0.003309  -0.000654   0.000110  -0.000373  -0.003362  -0.000003
    27  C   -0.000957  -0.000004  -0.000000  -0.000000   0.000000  -0.041930
    28  C    0.007630  -0.000000   0.000000   0.000000  -0.000000   0.414348
    29  C   -0.040240  -0.000000  -0.000000   0.000000   0.000000  -0.043640
    30  C    0.419194  -0.000001   0.000000   0.000000  -0.000000   0.007770
    31  C    0.000000   0.410935  -0.039105   0.008047  -0.000680   0.000000
    32  C   -0.000000  -0.048244   0.409436  -0.043972   0.007586   0.000000
    33  C    0.000000   0.009330  -0.046263   0.414633  -0.037849   0.000000
    34  C   -0.000003  -0.001847   0.007731  -0.042580   0.419700  -0.000000
    35  C   -0.000110   0.010763  -0.000167   0.009162  -0.047954  -0.000000
    36  C    0.000020  -0.053733   0.008903  -0.000494   0.007352  -0.000000
    37  C    0.000098  -0.017206  -0.000412  -0.000005  -0.000330   0.000010
    38  C   -0.012284   0.000289   0.000018   0.000010  -0.000118  -0.000004
    39  C   -0.045103   0.000026  -0.000000  -0.000000  -0.000008  -0.000353
    40  C    0.009066  -0.000245  -0.000000  -0.000000   0.000001   0.009042
    41  H    0.000060   0.000001  -0.000000   0.000000   0.000000  -0.007585
    42  H   -0.007755   0.000000   0.000000   0.000000  -0.000000  -0.007654
    43  H    0.574658   0.000000   0.000000   0.000000   0.000000  -0.000315
    44  H    0.000000   0.591340  -0.009937  -0.000282   0.000062   0.000000
    45  H    0.000000  -0.009937   0.579589  -0.007981  -0.000318   0.000000
    46  H    0.000000  -0.000282  -0.007981   0.577913  -0.007950  -0.000000
    47  H    0.000000   0.000062  -0.000318  -0.007950   0.569544   0.000000
    48  H   -0.000315   0.000000   0.000000  -0.000000   0.000000   0.576690
 Mulliken charges:
               1
     1  S    0.272152
     2  S    0.249785
     3  C   -0.064413
     4  C   -0.088575
     5  C   -0.109403
     6  C   -0.052569
     7  C   -0.043726
     8  C   -0.094090
     9  C   -0.082917
    10  C   -0.069938
    11  C   -0.265242
    12  C    0.059259
    13  C   -0.169989
    14  C   -0.148598
    15  C   -0.000443
    16  C   -0.190514
    17  H    0.099575
    18  H    0.099581
    19  H    0.096711
    20  H    0.097784
    21  H    0.099331
    22  H    0.099975
    23  H    0.098768
    24  H    0.100331
    25  S    0.359287
    26  S    0.273771
    27  C   -0.069409
    28  C   -0.088730
    29  C   -0.107168
    30  C   -0.044869
    31  C   -0.015751
    32  C   -0.115117
    33  C   -0.079175
    34  C   -0.075112
    35  C   -0.191599
    36  C   -0.013946
    37  C   -0.190234
    38  C   -0.190812
    39  C    0.012280
    40  C   -0.233707
    41  H    0.108802
    42  H    0.094659
[...]
 Alpha  occ. eigenvalues --   -0.49097  -0.47492  -0.45651  -0.45496  -0.43992
 Alpha  occ. eigenvalues --   -0.43459  -0.43123  -0.40830  -0.40503  -0.39185
 Alpha  occ. eigenvalues --   -0.37284  -0.36629  -0.36204  -0.34755  -0.34568
 Alpha  occ. eigenvalues --   -0.34541  -0.32716  -0.28877  -0.28202  -0.24977
 Alpha  occ. eigenvalues --   -0.22873  -0.21142
 Alpha virt. eigenvalues --   -0.05634  -0.02355  -0.01598  -0.00538   0.00529
 Alpha virt. eigenvalues --    0.01814   0.04007   0.04132   0.04931   0.06274
 Alpha virt. eigenvalues --    0.07391   0.07898   0.08378   0.11281   0.12155
 Alpha virt. eigenvalues --    0.12961   0.13135   0.13213   0.14000   0.15845
 Alpha virt. eigenvalues --    0.16154   0.17707   0.19342   0.20644   0.23011
 Alpha virt. eigenvalues --    0.23156   0.24325   0.26898   0.27563   0.27686
 Alpha virt. eigenvalues --    0.28436   0.28987   0.29457   0.32878   0.34470
 Alpha virt. eigenvalues --    0.35827   0.37143   0.37441   0.38214   0.38784
 Alpha virt. eigenvalues --    0.38883   0.39778   0.40122   0.40604   0.41645
 Alpha virt. eigenvalues --    0.42095   0.42530   0.42664   0.44115   0.44468
 Alpha virt. eigenvalues --    0.44601   0.45384   0.45598   0.45806   0.45854
 Alpha virt. eigenvalues --    0.48376   0.49289   0.49469   0.50768   0.51611
 Alpha virt. eigenvalues --    0.53255   0.54814   0.56289   0.57147   0.58053
 Alpha virt. eigenvalues --    0.58699   0.59093   0.59418   0.59907   0.60359
 Alpha virt. eigenvalues --    0.60411   0.61634   0.62056   0.63624   0.63701
 Alpha virt. eigenvalues --    0.64647   0.66103   0.69589   0.70213   0.71869
 Alpha virt. eigenvalues --    0.72254   0.72781   0.73141   0.73662   0.74647
 Alpha virt. eigenvalues --    0.75797   0.76581   0.77499   0.78874   0.80151
 Alpha virt. eigenvalues --    0.80162   0.81842   0.83225   0.84213   0.84656
 Alpha virt. eigenvalues --    0.85760   0.85988   0.88325   0.88907   0.90285
 Alpha virt. eigenvalues --    0.90749   0.92271   0.93486   0.95972   0.96735
 Alpha virt. eigenvalues --    0.96752   0.98696   0.99409   1.00269   1.01682
 Alpha virt. eigenvalues --    1.02841   1.06057   1.06378   1.07540   1.08927
 Alpha virt. eigenvalues --    1.08966   1.09370   1.10726   1.11288   1.15743
 Alpha virt. eigenvalues --    1.18261   1.20259   1.21823   1.22319   1.24553
 Alpha virt. eigenvalues --    1.27961   1.28574   1.28963   1.34786   1.38699
 Alpha virt. eigenvalues --    1.40575   1.41488   1.42794   1.44201   1.44815
 Alpha virt. eigenvalues --    1.47146   1.47767   1.48942   1.52381   1.53863
 Alpha virt. eigenvalues --    1.53968   1.55929   1.56261   1.57906   1.58887
 Alpha virt. eigenvalues --    1.59642   1.60508   1.61021   1.61377   1.62167
 Alpha virt. eigenvalues --    1.63004   1.67111   1.69298   1.70368   1.71950
 Alpha virt. eigenvalues --    1.72872   1.73402   1.74565   1.75625   1.80208
 Alpha virt. eigenvalues --    1.80449   1.81565   1.82362   1.83269   1.83805
 Alpha virt. eigenvalues --    1.84229   1.86699   1.88786   1.89364   1.89440
 Alpha virt. eigenvalues --    1.89832   1.90823   1.90933   1.93661   1.93791
 Alpha virt. eigenvalues --    1.93885   1.96146   1.96192   1.98879   1.99490
 Alpha virt. eigenvalues --    2.00049   2.01111   2.02442   2.03435   2.06509
 Alpha virt. eigenvalues --    2.08045   2.10951   2.12006   2.14109   2.22431
 Alpha virt. eigenvalues --    2.25160   2.26306   2.26613   2.27653   2.32650
 Alpha virt. eigenvalues --    2.32800   2.32874   2.33279   2.34000   2.35759
 Alpha virt. eigenvalues --    2.37461   2.40468   2.47840   2.51992   2.53565
 Alpha virt. eigenvalues --    2.55488   2.56345   2.57262   2.59883   2.60227
 Alpha virt. eigenvalues --    2.61400   2.61610   2.62145   2.63709   2.64452
 Alpha virt. eigenvalues --    2.65123   2.65897   2.68911   2.68924   2.68999
 Alpha virt. eigenvalues --    2.70411   2.71688   2.73533   2.77368   2.79988
 Alpha virt. eigenvalues --    2.81351   2.81647   2.82207   2.83175   2.83583
 Alpha virt. eigenvalues --    2.87662   2.91705   2.92379   2.97020   3.03978
 Alpha virt. eigenvalues --    3.04299   3.07287   3.10371   3.15514   3.17190
 Alpha virt. eigenvalues --    3.23369   3.24266   3.29670   3.30263   3.31902
 Alpha virt. eigenvalues --    3.34398   3.38725   3.42628   3.44597   3.45777
 Alpha virt. eigenvalues --    3.50498   3.54556   3.55826   3.62654   3.75967
 Alpha virt. eigenvalues --    3.82196   3.98588   4.00437   4.01595   4.03790
 Alpha virt. eigenvalues --    4.11484   4.11840   4.19784   4.54946   4.79699
 Alpha virt. eigenvalues --    4.79826   7.81119   7.83950  17.19636  17.21067
 Alpha virt. eigenvalues --   17.43715  17.51189  17.52288  17.53379  23.35373
 Alpha virt. eigenvalues --   23.53812  23.68918  23.85655  23.85823  23.90157
 Alpha virt. eigenvalues --   23.92087  23.98132  24.01115  24.03741  24.07284
 Alpha virt. eigenvalues --   24.07407  24.14660  24.14770 188.92517 188.95387
          Condensed to atoms (all electrons):
              25         26         27         28         29         30
    25  S   15.370515   0.009508  -0.061459   0.005886  -0.000104   0.009384
    26  S    0.009508  15.370517  -0.000169  -0.000038   0.000327   0.002373
    27  C   -0.061459  -0.000169   4.861973   0.512589  -0.040620  -0.053510
    28  C    0.005886  -0.000038   0.512589   4.879655   0.492490  -0.051840
    29  C   -0.000104   0.000327  -0.040620   0.492490   4.878941   0.511515
    30  C    0.009384   0.002373  -0.053510  -0.051840   0.511515   4.875448
    31  C    0.002373   0.009384  -0.000001   0.000000  -0.000000  -0.000001
    32  C    0.000327  -0.000104   0.000000  -0.000000   0.000000  -0.000000
    33  C   -0.000038   0.005887  -0.000000   0.000000  -0.000000   0.000000
    34  C   -0.000169  -0.061459   0.000000  -0.000000   0.000000  -0.000001
    35  C    0.008663   0.306198   0.000033  -0.000002   0.000002  -0.000301
    36  C   -0.070639  -0.088260  -0.000510   0.000027  -0.000018   0.000095
    37  C    0.316755  -0.092101  -0.000489  -0.000022  -0.000613   0.011534
    38  C   -0.092100   0.316755   0.017256  -0.001042   0.013325  -0.089216
    39  C   -0.088260  -0.070639   0.006581  -0.049990  -0.029886   0.486114
    40  C    0.306199   0.008663   0.443294  -0.047944  -0.054763  -0.045310
    41  H   -0.003185   0.000023   0.419541  -0.037064   0.007347  -0.000568
    42  H    0.000110  -0.000002   0.007001  -0.041820   0.411184  -0.038060
    43  H   -0.000642   0.003289  -0.000908   0.007555  -0.039507   0.419765
    44  H    0.003289  -0.000642  -0.000003   0.000000  -0.000000   0.000000
    45  H   -0.000002   0.000110   0.000000  -0.000000  -0.000000   0.000000
    46  H   -0.000003  -0.000371  -0.000000   0.000000   0.000000   0.000000
    47  H    0.000023  -0.003185   0.000000  -0.000000   0.000000  -0.000000
    48  H   -0.000371  -0.000003  -0.041208   0.413909  -0.042676   0.007627
              31         32         33         34         35         36
    25  S    0.002373   0.000327  -0.000038  -0.000169   0.008663  -0.070639
    26  S    0.009384  -0.000104   0.005887  -0.061459   0.306198  -0.088260
    27  C   -0.000001   0.000000  -0.000000   0.000000   0.000033  -0.000510
    28  C    0.000000  -0.000000   0.000000  -0.000000  -0.000002   0.000027
    29  C   -0.000000   0.000000  -0.000000   0.000000   0.000002  -0.000018
    30  C   -0.000001  -0.000000   0.000000  -0.000001  -0.000301   0.000095
    31  C    4.875448   0.511514  -0.051840  -0.053510  -0.045309   0.486113
    32  C    0.511514   4.878941   0.492490  -0.040619  -0.054764  -0.029885
    33  C   -0.051840   0.492490   4.879656   0.512588  -0.047943  -0.049990
    34  C   -0.053510  -0.040619   0.512588   4.861974   0.443293   0.006581
    35  C   -0.045309  -0.054764  -0.047943   0.443293   5.390446   0.412306
    36  C    0.486113  -0.029885  -0.049990   0.006581   0.412306   4.949780
    37  C   -0.089216   0.013325  -0.001042   0.017256  -0.096657   0.392912
    38  C    0.011534  -0.000613  -0.000022  -0.000489  -0.086687  -0.014506
    39  C    0.000095  -0.000018   0.000027  -0.000510   0.003451   0.021083
    40  C   -0.000301   0.000002  -0.000002   0.000033  -0.000008   0.003451
    41  H   -0.000000   0.000000  -0.000000   0.000000   0.000001  -0.000009
    42  H    0.000000  -0.000000  -0.000000   0.000000  -0.000000  -0.000000
    43  H    0.000000  -0.000000   0.000000  -0.000003  -0.000107   0.000013
    44  H    0.419765  -0.039507   0.007555  -0.000908   0.008942  -0.045793
    45  H   -0.038060   0.411184  -0.041820   0.007001   0.000281   0.007544
    46  H    0.007627  -0.042676   0.413909  -0.041208   0.008882  -0.000338
    47  H   -0.000568   0.007347  -0.037064   0.419542  -0.047522   0.007228
    48  H    0.000000   0.000000   0.000000  -0.000000  -0.000000  -0.000000
              37         38         39         40         41         42
    25  S    0.316755  -0.092100  -0.088260   0.306199  -0.003185   0.000110
    26  S   -0.092101   0.316755  -0.070639   0.008663   0.000023  -0.000002
    27  C   -0.000489   0.017256   0.006581   0.443294   0.419541   0.007001
    28  C   -0.000022  -0.001042  -0.049990  -0.047944  -0.037064  -0.041820
    29  C   -0.000613   0.013325  -0.029886  -0.054763   0.007347   0.411184
    30  C    0.011534  -0.089216   0.486114  -0.045310  -0.000568  -0.038060
    31  C   -0.089216   0.011534   0.000095  -0.000301  -0.000000   0.000000
    32  C    0.013325  -0.000613  -0.000018   0.000002   0.000000  -0.000000
    33  C   -0.001042  -0.000022   0.000027  -0.000002  -0.000000  -0.000000
    34  C    0.017256  -0.000489  -0.000510   0.000033   0.000000   0.000000
    35  C   -0.096657  -0.086687   0.003451  -0.000008   0.000001  -0.000000
    36  C    0.392912  -0.014506   0.021083   0.003451  -0.000009  -0.000000
    37  C    5.459002   0.363442  -0.014506  -0.086687  -0.000118   0.000016
    38  C    0.363442   5.459000   0.392914  -0.096657  -0.000333  -0.000469
    39  C   -0.014506   0.392914   4.949779   0.412306   0.007228   0.007544
    40  C   -0.086687  -0.096657   0.412306   5.390446  -0.047522   0.000281
    41  H   -0.000118  -0.000333   0.007228  -0.047522   0.565102  -0.000321
    42  H    0.000016  -0.000469   0.007544   0.000281  -0.000321   0.571823
    43  H    0.000092  -0.012024  -0.045793   0.008942   0.000064  -0.007644
    44  H   -0.012024   0.000092   0.000013  -0.000107   0.000000   0.000000
    45  H   -0.000469   0.000016  -0.000000  -0.000000  -0.000000   0.000000
    46  H   -0.000002   0.000010  -0.000000  -0.000000   0.000000   0.000000
    47  H   -0.000333  -0.000118  -0.000009   0.000001   0.000000  -0.000000
    48  H    0.000010  -0.000002  -0.000338   0.008882  -0.007754  -0.007454
              43         44         45         46         47         48
    25  S   -0.000642   0.003289  -0.000002  -0.000003   0.000023  -0.000371
    26  S    0.003289  -0.000642   0.000110  -0.000371  -0.003185  -0.000003
    27  C   -0.000908  -0.000003   0.000000  -0.000000   0.000000  -0.041208
    28  C    0.007555   0.000000  -0.000000   0.000000  -0.000000   0.413909
    29  C   -0.039507  -0.000000  -0.000000   0.000000   0.000000  -0.042676
    30  C    0.419765   0.000000   0.000000   0.000000  -0.000000   0.007627
    31  C    0.000000   0.419765  -0.038060   0.007627  -0.000568   0.000000
    32  C   -0.000000  -0.039507   0.411184  -0.042676   0.007347   0.000000
    33  C    0.000000   0.007555  -0.041820   0.413909  -0.037064   0.000000
    34  C   -0.000003  -0.000908   0.007001  -0.041208   0.419542  -0.000000
    35  C   -0.000107   0.008942   0.000281   0.008882  -0.047522  -0.000000
    36  C    0.000013  -0.045793   0.007544  -0.000338   0.007228  -0.000000
    37  C    0.000092  -0.012024  -0.000469  -0.000002  -0.000333   0.000010
    38  C   -0.012024   0.000092   0.000016   0.000010  -0.000118  -0.000002
    39  C   -0.045793   0.000013  -0.000000  -0.000000  -0.000009  -0.000338
    40  C    0.008942  -0.000107  -0.000000  -0.000000   0.000001   0.008882
    41  H    0.000064   0.000000  -0.000000   0.000000   0.000000  -0.007754
    42  H   -0.007644   0.000000   0.000000   0.000000  -0.000000  -0.007454
    43  H    0.571390   0.000000   0.000000   0.000000   0.000000  -0.000308
    44  H    0.000000   0.571390  -0.007644  -0.000308   0.000064   0.000000
    45  H    0.000000  -0.007644   0.571823  -0.007454  -0.000321   0.000000
    46  H    0.000000  -0.000308  -0.007454   0.570652  -0.007754  -0.000000
    47  H    0.000000   0.000064  -0.000321  -0.007754   0.565102   0.000000
    48  H   -0.000308   0.000000   0.000000  -0.000000   0.000000   0.570652
 Mulliken charges:
               1
     1  S    0.000000
     2  S    0.000000
     3  C    0.000000
     4  C    0.000000
     5  C    0.000000
     6  C    0.000000
     7  C    0.000000
     8  C    0.000000
     9  C    0.000000
    10  C    0.000000
    11  C    0.000000
    12  C    0.000000
    13  C    0.000000
    14  C    0.000000
    15  C    0.000000
    16  C    0.000000
    17  H    0.000000
    18  H    0.000000
    19  H    0.000000
    20  H    0.000000
    21  H    0.000000
    22  H    0.000000
    23  H    0.000000
    24  H    0.000000
    25  S    0.283942
    26  S    0.283940
    27  C   -0.069394
    28  C   -0.082348
    29  C   -0.106945
    30  C   -0.045047
    31  C   -0.045047
    32  C   -0.106945
    33  C   -0.082348
    34  C   -0.069393
    35  C   -0.203196
    36  C    0.012816
    37  C   -0.180066
    38  C   -0.180066
    39  C    0.012816
    40  C   -0.203197
    41  H    0.097567
    42  H    0.097812
    43  H    0.095826
    44  H    0.095826
    45  H    0.097812
    46  H    0.099035
    47  H    0.097567
    48  H    0.099035
 Sum of Mulliken charges =  -0.00000
 Mulliken charges with hydrogens summed into heavy atoms:
               1
     1  S    0.000000
     2  S    0.000000
     3  C    0.000000
     4  C    0.000000
     5  C    0.000000
     6  C    0.000000
     7  C    0.000000
     8  C    0.000000
     9  C    0.000000
    10  C    0.000000
    11  C    0.000000
    12  C    0.000000
    13  C    0.000000
    14  C    0.000000
    15  C    0.000000
    16  C    0.000000
    25  S    0.283942
    26  S    0.283940
    27  C    0.028173
    28  C    0.016686
    29  C   -0.009133
    30  C    0.050779
    31  C    0.050779
    32  C   -0.009133
    33  C    0.016686
    34  C    0.028174
    35  C   -0.203196
    36  C    0.012816
    37  C   -0.180066
    38  C   -0.180066
    39  C    0.012816
    40  C   -0.203197
         Mulliken charges condensed to fragments:
      1      0.000000
      2     -0.000000
 Electronic spatial extent (au):  <R**2>=           7134.1706
 Charge=              0.0000 electrons
 Dipole moment (field-independent basis, Debye):
    X=              0.0000    Y=             -0.0000    Z=              0.0000  Tot=              0.0000
 Quadrupole moment (field-independent basis, Debye-Ang):
   XX=            -89.4053   YY=            -99.0810   ZZ=           -111.7898
   XY=              2.6921   XZ=             -2.4137   YZ=              4.4587
 Traceless Quadrupole moment (field-independent basis, Debye-Ang):
   XX=             10.6867   YY=              1.0110   ZZ=            -11.6977
   XY=              2.6921   XZ=             -2.4137   YZ=              4.4587
 Octapole moment (field-independent basis, Debye-Ang**2):
  XXX=            211.9459  YYY=           -698.7854  ZZZ=             65.3347  XYY=             90.9523
  XXY=           -214.4368  XXZ=             21.2321  XZZ=             89.2772  YZZ=           -264.5427
  YYZ=             40.2663  XYZ=             -9.7222
 Hexadecapole moment (field-independent basis, Debye-Ang**3):
 XXXX=          -4418.5778 YYYY=          -4564.6473 ZZZZ=           -314.3090 XXXY=            155.1722
 XXXZ=             41.8665 YYYX=            225.5720 YYYZ=            101.7676 ZZZX=            130.7935
 ZZZY=              6.8732 XXYY=          -1457.8651 XXZZ=           -946.5082 YYZZ=           -907.1104
 XXYZ=             58.3373 YYXZ=             19.3627 ZZXY=             46.9219
 N-N= 1.192162449365D+03 E-N=-5.527361818284D+03  KE= 1.331399870485D+03
 CPIOFr:  IOpCl= 0 IRwI=-1 IRwCP=  731 ICalc=  4 LCPTot=      762852 Len1MO=     1998050 IndFrg=    10753102
 CPIOFr:  IOpCl= 0 IRwI=-2 IRwCP=  731 ICalc=  0 LCPTot=      762852 Len1MO=     1998050 IndFrg=     2760902
 Counterpoise corrected energy =   -2669.807035588763
                   BSSE energy =       0.003369873222
              sum of fragments =   -2669.794634390256
           complexation energy =      -9.90 kcal/mole (raw)
           complexation energy =      -7.78 kcal/mole (corrected)
 1\1\GINC-CMDELL86\SP\RB3LYP\6-311G(d,p)\C28H16S4\OHNO\14-Jul-2021\0\\#
 b3lyp/6-311G** EmpiricalDispersion=GD3 counterpoise=2\\BTBT dimer b3ly
 p/6-311G**\\0,1\S,0,1.6203193263,0.9333401805,-0.9655543418\S,0,-1.620
 3215046,-0.9333388826,0.9655526073\C,0,0.7607010875,0.432046614,-3.596
 4890673\C,0,-0.1990145233,-0.0970811798,-4.456605144\C,0,-1.3358730484
 ,-0.7617409166,-3.9518894629\C,0,-1.5484008838,-0.8661903564,-2.581713
 2069\C,0,1.5483981093,0.866196593,2.581713372\C,0,1.3358706776,0.76174
 32744,3.9518892671\C,0,0.19901583,0.0970776341,4.4566055645\C,0,-0.760
 6973501,-0.4320550248,3.5964887592\C,0,-0.5418750743,-0.3467155574,2.2
 136722139\C,0,0.5874862401,0.3462927079,1.6917199634\C,0,0.5677107081,
 0.3035896045,0.2629304608\C,0,-0.5677107915,-0.3035871419,-0.262930279
 8\C,0,-0.5874867399,-0.3462921765,-1.6917195198\C,0,0.5418798052,0.346
 711325,-2.2136710574\H,0,1.6351619757,0.9441051055,-3.9892419249\H,0,-
 2.069015815,-1.1685664408,-4.6425298944\H,0,-2.4232632237,-1.382224776
 ,-2.1937042881\H,0,2.4232592385,1.3822352091,2.193705084\H,0,2.0690081
 682,1.1685767873,4.6425301772\H,0,0.0489377359,0.0282464127,5.53031334
 02\H,0,-1.6351576368,-0.9441151195,3.9892396112\H,0,-0.0489323111,-0.0
 282538749,-5.5303122329\S,0,1.3046806737,-3.0916598195,-0.9655543418\S
 ,0,4.5453215046,-4.9583388826,0.9655526073\C,0,2.1642989125,-3.5929533
 86,-3.5964890673\C,0,3.1240145233,-4.1220811798,-4.456605144\C,0,4.260
 8730484,-4.7867409166,-3.9518894629\C,0,4.4734008838,-4.8911903564,-2.
 5817132069\C,0,1.3766018907,-3.158803407,2.581713372\C,0,1.5891293224,
 -3.2632567256,3.9518892671\C,0,2.72598417,-3.9279223659,4.4566055645\C
 ,0,3.6856973501,-4.4570550248,3.5964887592\C,0,3.4668750743,-4.3717155
 574,2.2136722139\C,0,2.3375137599,-3.6787072921,1.6917199634\C,0,2.357
 2892919,-3.7214103955,0.2629304608\C,0,3.4927107915,-4.3285871419,-0.2
 629302798\C,0,3.5124867399,-4.3712921765,-1.6917195198\C,0,2.383120194
 8,-3.678288675,-2.2136710574\H,0,1.2898380243,-3.0808948945,-3.9892419
 249\H,0,4.994015815,-5.1935664408,-4.6425298944\H,0,5.3482632237,-5.40
 7224776,-2.1937042881\H,0,0.5017407615,-2.6427647909,2.193705084\H,0,0
 .8559918318,-2.8564232127,4.6425301772\H,0,2.8760622641,-3.9967535873,
 5.5303133402\H,0,4.5601576368,-4.9691151195,3.9892396112\H,0,2.9739323
 111,-4.0532538749,-5.5303122329\\Version=ES64L-G16RevA.03\State=1-A\HF
 =-1334.8973165\RMSD=8.791e-09\Dipole=-0.1111813,0.3410575,0.0246101\Qu
 adrupole=-2.594665,-13.7139971,16.3086621,1.1517406,0.3446906,0.847168
 6\PG=C01 [X(C28H16S4)]\\@


 OUR LITTLE SYSTEMS HAVE THEIR DAY,    
   THEY HAVE THEIR DAY AND CEASE TO BE.
   THEY ARE BUT BROKEN LIGHTS OF THEE, 
 AND THOU, OH LORD, ART MORE THAN THEY.
          -------------------          
 LET KNOWLEDGE GROW FROM MORE TO MORE, 
   BUT MORE OF REVERENCE IN US DWELL.  
   THAT MIND AND SOUL, ACCORDING WELL, 
 MAY MAKE ONE MUSIC AS BEFORE.....     
          -------------------          
                    LORD TENNYSON      
 Job cpu time:       0 days  2 hours 21 minutes 34.0 seconds.
 Elapsed time:       0 days  0 hours  3 minutes 35.2 seconds.
 File lengths (MBytes):  RWF=    395 Int=      0 D2E=      0 Chk=    113 Scr=      2
 Normal termination of Gaussian 16 at Wed Jul 14 11:59:52 2021.
