 Entering Gaussian System, Link 0=g16
 Initial command:
 /home/g03/g16/l1.exe "/home/scr/21098/Gau-176237.inp" -scrdir="/home/scr/21098/"
 Entering Link 1 = /home/g03/g16/l1.exe PID=    176238.
  
 Copyright (c) 1988,1990,1992,1993,1995,1998,2003,2009,2016,
            Gaussian, Inc.  All Rights Reserved.
  
 This is part of the Gaussian(R) 16 program.  It is based on
 the Gaussian(R) 09 system (copyright 2009, Gaussian, Inc.),
 the Gaussian(R) 03 system (copyright 2003, Gaussian, Inc.),
 the Gaussian(R) 98 system (copyright 1998, Gaussian, Inc.),
 the Gaussian(R) 94 system (copyright 1995, Gaussian, Inc.),
 the Gaussian 92(TM) system (copyright 1992, Gaussian, Inc.),
 the Gaussian 90(TM) system (copyright 1990, Gaussian, Inc.),
 the Gaussian 88(TM) system (copyright 1988, Gaussian, Inc.),
 the Gaussian 86(TM) system (copyright 1986, Carnegie Mellon
 University), and the Gaussian 82(TM) system (copyright 1983,
 Carnegie Mellon University). Gaussian is a federally registered
 trademark of Gaussian, Inc.
  
 This software contains proprietary and confidential information,
 including trade secrets, belonging to Gaussian, Inc.
  
 This software is provided under written license and may be
 used, copied, transmitted, or stored only in accord with that
 written license.
  
 The following legend is applicable only to US Government
 contracts under FAR:
  
                    RESTRICTED RIGHTS LEGEND
  
 Use, reproduction and disclosure by the US Government is
 subject to restrictions as set forth in subparagraphs (a)
 and (c) of the Commercial Computer Software - Restricted
 Rights clause in FAR 52.227-19.
  
 Gaussian, Inc.
 340 Quinnipiac St., Bldg. 40, Wallingford CT 06492
  
  
 ---------------------------------------------------------------
 Warning -- This program may not be used in any manner that
 competes with the business of Gaussian, Inc. or will provide
 assistance to any competitor of Gaussian, Inc.  The licensee
 of this program is prohibited from giving any competitor of
 Gaussian, Inc. access to this program.  By using this program,
 the user acknowledges that Gaussian, Inc. is engaged in the
 business of creating and licensing software in the field of
 computational chemistry and represents and warrants to the
 licensee that it is not a competitor of Gaussian, Inc. and that
 it will not use this program in any manner prohibited above.
 ---------------------------------------------------------------
  

 Cite this work as:
 Gaussian 16, Revision A.03,
 M. J. Frisch, G. W. Trucks, H. B. Schlegel, G. E. Scuseria, 
 M. A. Robb, J. R. Cheeseman, G. Scalmani, V. Barone, 
 G. A. Petersson, H. Nakatsuji, X. Li, M. Caricato, A. V. Marenich, 
 J. Bloino, B. G. Janesko, R. Gomperts, B. Mennucci, H. P. Hratchian, 
 J. V. Ortiz, A. F. Izmaylov, J. L. Sonnenberg, D. Williams-Young, 
 F. Ding, F. Lipparini, F. Egidi, J. Goings, B. Peng, A. Petrone, 
 T. Henderson, D. Ranasinghe, V. G. Zakrzewski, J. Gao, N. Rega, 
 G. Zheng, W. Liang, M. Hada, M. Ehara, K. Toyota, R. Fukuda, 
 J. Hasegawa, M. Ishida, T. Nakajima, Y. Honda, O. Kitao, H. Nakai, 
 T. Vreven, K. Throssell, J. A. Montgomery, Jr., J. E. Peralta, 
 F. Ogliaro, M. J. Bearpark, J. J. Heyd, E. N. Brothers, K. N. Kudin, 
 V. N. Staroverov, T. A. Keith, R. Kobayashi, J. Normand, 
 K. Raghavachari, A. P. Rendell, J. C. Burant, S. S. Iyengar, 
 J. Tomasi, M. Cossi, J. M. Millam, M. Klene, C. Adamo, R. Cammi, 
 J. W. Ochterski, R. L. Martin, K. Morokuma, O. Farkas, 
 J. B. Foresman, and D. J. Fox, Gaussian, Inc., Wallingford CT, 2016.
 
 ******************************************
 Gaussian 16:  ES64L-G16RevA.03 25-Dec-2016
                14-Jul-2021 
 ******************************************
 %NProcShared=40
 Will use up to   40 processors via shared memory.
 %Mem=15GB
 ------------------------------------------------------
 #b3lyp/6-311G** EmpiricalDispersion=GD3 counterpoise=2
 ------------------------------------------------------
 1/38=1,62=2,172=1/1;
 2/12=2,17=6,18=5,40=1/2;
 1/38=1,53=2,62=2,63=1/22;
 3/5=4,6=6,7=101,11=2,25=1,30=1,74=-5,124=31/1,2,3;
 4//1;
 5/5=2,38=5/2;
 6/7=2,8=2,9=2,10=2,28=1/1;
 1/53=2,62=2,63=1/22;
 3/5=7,6=11,7=101,11=2,25=1,30=1,74=-5,82=7,124=31/1,2,3;
 4//1;
 5/5=2,38=5/2;
 6/7=2,8=2,9=2,10=2,28=1/1;
 1/53=2,62=2,63=1/22(-4);
 99/5=1,9=1/99;
 -------------------------
 BTBT dimer b3lyp/6-311G**
 -------------------------
 Symbolic Z-matrix:
 Charge =  0 Multiplicity = 1 in supermolecule
 Charge =  0 Multiplicity = 1 in fragment      1.
 Charge =  0 Multiplicity = 1 in fragment      2.
 S                     1.62032   0.93334  -0.96555    
 S                    -1.62032  -0.93334   0.96555    
 C                     0.7607    0.43205  -3.59649    
 C                    -0.19901  -0.09708  -4.45661    
 C                    -1.33587  -0.76174  -3.95189    
 C                    -1.5484   -0.86619  -2.58171    
 C                     1.5484    0.8662    2.58171    
 C                     1.33587   0.76174   3.95189    
 C                     0.19902   0.09708   4.45661    
 C                    -0.7607   -0.43206   3.59649    
 C                    -0.54188  -0.34672   2.21367    
 C                     0.58749   0.34629   1.69172    
 C                     0.56771   0.30359   0.26293    
 C                    -0.56771  -0.30359  -0.26293    
 C                    -0.58749  -0.34629  -1.69172    
 C                     0.54188   0.34671  -2.21367    
 H                     1.63516   0.94411  -3.98924    
 H                    -2.06902  -1.16857  -4.64253    
 H                    -2.42326  -1.38222  -2.1937     
 H                     2.42326   1.38224   2.19371    
 H                     2.06901   1.16858   4.64253    
 H                     0.04894   0.02825   5.53031    
 H                    -1.63516  -0.94412   3.98924    
 H                    -0.04893  -0.02825  -5.53031    
 S                    -4.22968   0.93334  -0.96555    
 S                    -7.47032  -0.93334   0.96555    
 C                    -5.0893    0.43205  -3.59649    
 C                    -6.04901  -0.09708  -4.45661    
 C                    -7.18587  -0.76174  -3.95189    
 C                    -7.3984   -0.86619  -2.58171    
 C                    -4.3016    0.8662    2.58171    
 C                    -4.51413   0.76174   3.95189    
 C                    -5.65098   0.09708   4.45661    
 C                    -6.6107   -0.43206   3.59649    
 C                    -6.39188  -0.34672   2.21367    
 C                    -5.26251   0.34629   1.69172    
 C                    -5.28229   0.30359   0.26293    
 C                    -6.41771  -0.30359  -0.26293    
 C                    -6.43749  -0.34629  -1.69172    
 C                    -5.30812   0.34671  -2.21367    
 H                    -4.21484   0.94411  -3.98924    
 H                    -7.91902  -1.16857  -4.64253    
 H                    -8.27326  -1.38222  -2.1937     
 H                    -3.42674   1.38224   2.19371    
 H                    -3.78099   1.16858   4.64253    
 H                    -5.80106   0.02825   5.53031    
 H                    -7.48516  -0.94412   3.98924    
 H                    -5.89893  -0.02825  -5.53031    
 
                          Input orientation:                          
 ---------------------------------------------------------------------
 Center     Atomic      Atomic             Coordinates (Angstroms)
 Number     Number       Type             X           Y           Z
 ---------------------------------------------------------------------
      1         16           0        1.620319    0.933340   -0.965554
      2         16           0       -1.620322   -0.933339    0.965553
      3          6           0        0.760701    0.432047   -3.596489
      4          6           0       -0.199015   -0.097081   -4.456605
      5          6           0       -1.335873   -0.761741   -3.951889
      6          6           0       -1.548401   -0.866190   -2.581713
      7          6           0        1.548398    0.866197    2.581713
      8          6           0        1.335871    0.761743    3.951889
      9          6           0        0.199016    0.097078    4.456606
     10          6           0       -0.760697   -0.432055    3.596489
     11          6           0       -0.541875   -0.346716    2.213672
     12          6           0        0.587486    0.346293    1.691720
     13          6           0        0.567711    0.303590    0.262930
     14          6           0       -0.567711   -0.303587   -0.262930
     15          6           0       -0.587487   -0.346292   -1.691720
     16          6           0        0.541880    0.346711   -2.213671
     17          1           0        1.635162    0.944105   -3.989242
     18          1           0       -2.069016   -1.168566   -4.642530
     19          1           0       -2.423263   -1.382225   -2.193704
     20          1           0        2.423259    1.382235    2.193705
     21          1           0        2.069008    1.168577    4.642530
     22          1           0        0.048938    0.028246    5.530313
     23          1           0       -1.635158   -0.944115    3.989240
     24          1           0       -0.048932   -0.028254   -5.530312
     25         16           0       -4.229681    0.933340   -0.965554
     26         16           0       -7.470322   -0.933339    0.965553
     27          6           0       -5.089299    0.432047   -3.596489
     28          6           0       -6.049015   -0.097081   -4.456605
     29          6           0       -7.185873   -0.761741   -3.951889
     30          6           0       -7.398401   -0.866190   -2.581713
     31          6           0       -4.301602    0.866197    2.581713
     32          6           0       -4.514129    0.761743    3.951889
     33          6           0       -5.650984    0.097078    4.456606
     34          6           0       -6.610697   -0.432055    3.596489
     35          6           0       -6.391875   -0.346716    2.213672
     36          6           0       -5.262514    0.346293    1.691720
     37          6           0       -5.282289    0.303590    0.262930
     38          6           0       -6.417711   -0.303587   -0.262930
     39          6           0       -6.437487   -0.346292   -1.691720
     40          6           0       -5.308120    0.346711   -2.213671
     41          1           0       -4.214838    0.944105   -3.989242
     42          1           0       -7.919016   -1.168566   -4.642530
     43          1           0       -8.273263   -1.382225   -2.193704
     44          1           0       -3.426741    1.382235    2.193705
     45          1           0       -3.780992    1.168577    4.642530
     46          1           0       -5.801062    0.028246    5.530313
     47          1           0       -7.485158   -0.944115    3.989240
     48          1           0       -5.898932   -0.028254   -5.530312
 ---------------------------------------------------------------------
                    Distance matrix (angstroms):
                    1          2          3          4          5
     1  S    0.000000
     2  S    4.208969   0.000000
     3  C    2.812838   5.324075   0.000000
     4  C    4.069297   5.667383   1.393137   0.000000
     5  C    4.531067   4.928650   2.438660   1.410304   0.000000
     6  C    3.986360   3.548630   2.836748   2.434665   1.390489
     7  C    3.548632   3.986363   6.243327   7.315687   7.325105
     8  C    4.928652   4.531069   7.577436   8.590473   8.481093
     9  C    5.667385   4.069299   8.079606   8.924206   8.590474
    10  C    5.324076   2.812839   7.402719   8.079605   7.577436
    11  C    4.052297   1.750707   6.005094   6.683747   6.230315
    12  C    2.910752   2.653147   5.291740   6.214263   6.064435
    13  C    1.736014   2.609819   3.866376   4.798169   4.745868
    14  C    2.609817   1.736015   3.663120   4.214913   3.795840
    15  C    2.653146   2.910750   2.459994   2.803143   2.416826
    16  C    1.750703   4.052296   1.402623   2.403462   2.788553
    17  H    3.023743   6.218759   1.086803   2.160255   3.426128
    18  H    5.616881   5.630919   3.415181   2.163228   1.086273
    19  H    4.818792   3.290459   3.923903   3.423390   2.158387
    20  H    3.290462   4.818795   6.098632   7.300091   7.516385
    21  H    5.630921   5.616882   8.374699   9.462562   9.443696
    22  H    6.744237   4.954605   9.163416   9.990782   9.615298
    23  H    6.218758   3.023743   8.073242   8.608848   7.948859
    24  H    4.954602   6.744235   2.146405   1.086328   2.164633
    25  S    5.850000   3.744652   5.663658   5.430974   4.490615
    26  S    9.479104   5.850000   9.509271   9.108843   7.863977
    27  C    7.224409   5.891545   5.850000   4.993461   3.954699
    28  C    8.489281   7.050705   6.884185   5.850000   4.786461
    29  C    9.452012   7.428731   8.043599   7.036526   5.850000
    30  C    9.337430   6.780399   8.323829   7.479165   6.216312
    31  C    6.903388   3.611034   7.999099   8.203478   7.357560
    32  C    7.863978   4.490616   9.214692   9.490025   8.654018
    33  C    9.108842   5.430971  10.299235  10.450215   9.490023
    34  C    9.509268   5.663653  10.335527  10.299233   9.214688
    35  C    8.714430   4.966855   9.247907   9.105297   7.984332
    36  C    7.401292   3.928147   8.015711   7.977312   6.963948
    37  C    7.039302   3.928572   7.171426   6.947966   5.871443
    38  C    8.162941   4.992064   7.948797   7.503448   6.296300
    39  C    8.191033   5.532703   7.486512   6.828267   5.595304
    40  C    7.064361   5.034466   6.224955   5.597380   4.475357
    41  H    6.572052   5.899686   5.017215   4.174846   3.346602
    42  H   10.437293   8.436793   8.887837   7.796221   6.631761
    43  H   10.234900   7.378620   9.320509   8.483266   7.183564
    44  H    5.971201   3.183299   7.208597   7.538781   6.836424
    45  H    7.789744   4.754651   9.436678   9.860361   9.141596
    46  H    9.904161   6.264206  11.248036  11.451515  10.510669
    47  H   10.534920   6.598417  11.288547  11.186494  10.045322
    48  H    8.848775   7.830833   6.949983   5.800573   4.883742
                    6          7          8          9         10
     6  C    0.000000
     7  C    6.265166   0.000000
     8  C    7.325104   1.390489   0.000000
     9  C    7.315687   2.434666   1.410304   0.000000
    10  C    6.243327   2.836750   2.438660   1.393137   0.000000
    11  C    4.927339   2.444556   2.788550   2.403460   1.402622
    12  C    4.928931   1.409163   2.416825   2.803143   2.459994
    13  C    3.733405   2.579734   3.795839   4.214913   3.663121
    14  C    2.579734   3.733404   4.745867   4.798168   3.866376
    15  C    1.409162   4.928931   6.064435   6.214263   5.291739
    16  C    2.444557   4.927338   6.230314   6.683746   6.005093
    17  H    3.923440   6.571990   7.948861   8.608851   8.073244
    18  H    2.146960   8.331605   9.443696   9.462562   8.374698
    19  H    1.087302   6.605612   7.516383   7.300089   6.098630
    20  H    6.605613   1.087303   2.158387   3.423391   3.923905
    21  H    8.331604   2.146959   1.086273   2.163227   3.415181
    22  H    8.316038   3.412445   2.164633   1.086328   2.146407
    23  H    6.571988   3.923441   3.426129   2.160256   1.086802
    24  H    3.412445   8.316037   9.615296   9.990781   9.163414
    25  S    3.611030   6.780399   7.428732   7.050710   5.891552
    26  S    6.903387   9.337430   9.452012   8.489284   7.224415
    27  C    3.905528   9.078419   9.918141   9.640063   8.439336
    28  C    4.935815  10.401274  11.223943  10.886731   9.640064
    29  C    5.802533  11.028401  11.722237  11.223945   9.918144
    30  C    5.850000  10.474128  11.028401  10.401277   9.078423
    31  C    6.102643   5.850000   5.802533   4.935821   3.905539
    32  C    7.357559   6.216312   5.850000   4.786466   3.954708
    33  C    8.203475   7.479162   7.036523   5.850000   4.993464
    34  C    7.999094   8.323825   8.043594   6.884183   5.850000
    35  C    6.835555   8.040805   7.998008   6.976213   5.799106
    36  C    5.790249   6.888462   6.987105   6.126582   4.949780
    37  C    4.837593   7.235439   7.590676   6.904655   5.665561
    38  C    5.422495   8.539279   8.889188   8.137298   6.849337
    39  C    4.996553   9.138201   9.669703   9.057684   7.758765
    40  C    3.967628   8.383163   9.073533   8.653523   7.419130
    41  H    3.516844   8.740619   9.690469   9.567231   8.447971
    42  H    6.702472  12.081468  12.776661  12.259631  10.939168
    43  H    6.755784  11.150114  11.606049  10.871728   9.532461
    44  H    5.602517   5.016857   5.114557   4.463010   3.516708
    45  H    7.830353   5.721957   5.179264   4.125911   3.574689
    46  H    9.202724   7.963101   7.346105   6.095779   5.418195
    47  H    8.855991   9.320058   8.984536   7.768464   6.755355
    48  H    5.321982  11.048427  11.953184  11.702103  10.481556
                   11         12         13         14         15
    11  C    0.000000
    12  C    1.424132   0.000000
    13  C    2.336551   1.429564   0.000000
    14  C    2.477113   2.361669   1.390818   0.000000
    15  C    3.905658   3.647999   2.361670   1.429564   0.000000
    16  C    4.610503   3.905657   2.477112   2.336551   1.424133
    17  H    6.699392   5.807610   4.430653   4.504973   3.447304
    18  H    7.072136   7.033813   5.760478   4.709883   3.402697
    19  H    4.902741   5.210461   4.221724   2.886940   2.166846
    20  H    3.432447   2.166848   2.886941   4.221724   5.210463
    21  H    3.874555   3.402696   4.709882   5.760477   7.033812
    22  H    3.389656   3.889214   5.300025   5.835413   7.259688
    23  H    2.169053   3.447303   4.504972   4.430651   5.807607
    24  H    7.766190   7.259688   5.835412   5.300024   3.889214
    25  S    5.034475   5.532705   4.992066   3.928574   3.928149
    26  S    7.064368   8.191034   8.162943   7.039303   7.401293
    27  C    7.419131   7.758763   6.849334   5.665556   4.949775
    28  C    8.653525   9.057683   8.137297   6.904654   6.126580
    29  C    9.073539   9.669704   8.889190   7.590678   6.987107
    30  C    8.383169   9.138202   8.539281   7.235441   6.888464
    31  C    3.967639   4.996556   5.422498   4.837596   5.790251
    32  C    4.475364   5.595306   6.296302   5.871444   6.963949
    33  C    5.597383   6.828266   7.503447   6.947965   7.977311
    34  C    6.224955   7.486509   7.948794   7.171423   8.015708
    35  C    5.850000   7.033077   7.257005   6.329005   6.995928
    36  C    4.799700   5.850000   6.002898   5.126810   5.812333
    37  C    5.167187   6.041318   5.850000   4.782514   5.126809
    38  C    6.376587   7.301766   7.031451   5.850000   6.002897
    39  C    7.071798   7.828000   7.301767   6.041319   5.850000
    40  C    6.542118   7.071793   6.376582   5.167181   4.799695
    41  H    7.323457   7.462776   6.431485   5.361312   4.483460
    42  H   10.104709  10.713454   9.912382   8.600626   7.945737
    43  H    8.959442   9.828386   9.329515   8.016663   7.771506
    44  H    3.363349   4.176025   4.565853   4.129299   5.113286
    45  H    4.322886   5.335451   6.232199   6.046154   7.253690
    46  H    6.228945   7.459860   8.269365   7.814074   8.915122
    47  H    7.191571   8.491839   8.960515   8.145078   8.955923
    48  H    9.421718   9.714508   8.688455   7.499536   6.561051
                   16         17         18         19         20
    16  C    0.000000
    17  H    2.169054   0.000000
    18  H    3.874558   4.314058   0.000000
    19  H    3.432447   5.010647   2.483523   0.000000
    20  H    4.902740   6.248351   8.568619   7.097914   0.000000
    21  H    7.072134   8.645583  10.430619   8.568617   2.483523
    22  H    7.766190   9.694165  10.459676   8.231747   4.313194
    23  H    6.699390   8.827034   8.645580   6.248347   5.010648
    24  H    3.389656   2.481240   2.483789   4.313193   8.231747
    25  S    4.966862   6.598423   4.754643   3.183290   7.378620
    26  S    8.714434  10.534924   7.789738   5.971198  10.234900
    27  C    5.799107   6.755356   3.574671   3.516693   9.532457
    28  C    6.976216   7.768466   4.125898   4.463002  10.871726
    29  C    7.998014   8.984540   5.179259   5.114554  11.606050
    30  C    8.040811   9.320062   5.721953   5.016855  11.150114
    31  C    6.835561   8.855997   7.830351   5.602514   6.755783
    32  C    7.984336  10.045327   9.141593   6.836420   7.183563
    33  C    9.105299  11.186497   9.860356   7.538776   8.483263
    34  C    9.247908  11.288548   9.436670   7.208590   9.320505
    35  C    8.255856  10.226225   8.146782   6.020559   8.983110
    36  C    6.995932   8.955928   7.253685   5.113281   7.771504
    37  C    6.329009   8.145082   6.046148   4.129292   8.016660
    38  C    7.257009   8.960519   6.232193   4.565847   9.329513
    39  C    7.033082   8.491843   5.335443   4.176019   9.828385
    40  C    5.850000   7.191571   4.322872   3.363334   8.959436
    41  H    5.112328   5.850000   3.081350   3.441730   9.082132
    42  H    8.932087   9.806757   5.850000   6.020440  12.657146
    43  H    8.983116  10.335021   6.673461   5.850000  11.887270
    44  H    6.020567   8.002728   7.421867   5.281909   5.850000
    45  H    8.146789  10.192772   9.726533   7.421868   6.673464
    46  H   10.015170  12.114378  10.901710   8.547479   8.978068
    47  H   10.226224  12.263840  10.192763   8.002719  10.335017
    48  H    7.254293   7.751320   4.093499   5.004644  11.441538
                   21         22         23         24         25
    21  H    0.000000
    22  H    2.483787   0.000000
    23  H    4.314058   2.481244   0.000000
    24  H   10.459675  11.061203   9.694162   0.000000
    25  S    8.436790   7.830841   5.899692   6.264211   0.000000
    26  S   10.437290   8.848782   6.572057   9.904164   4.208969
    27  C   10.939162  10.481558   8.447970   5.418196   2.812838
    28  C   12.259627  11.702105   9.567230   6.095783   4.069297
    29  C   12.776658  11.953189   9.690471   7.346111   4.531067
    30  C   12.081465  11.048432   8.740622   7.963106   3.986360
    31  C    6.702468   5.321992   3.516857   9.202728   3.548632
    32  C    6.631757   4.883751   3.346614  10.510672   4.928652
    33  C    7.796214   5.800577   4.174850  11.451516   5.667385
    34  C    8.887829   6.949985   5.017216  11.248036   5.324076
    35  C    8.932077   7.254294   5.112327  10.015170   4.052297
    36  C    7.945731   6.561057   4.483465   8.915126   2.910752
    37  C    8.600620   7.499541   5.361317   7.814077   1.736014
    38  C    9.912376   8.688459   6.431488   8.269369   2.609817
    39  C   10.713450   9.714512   7.462778   7.459864   2.653146
    40  C   10.104701   9.421719   7.323455   6.228946   1.750703
    41  H   10.679167  10.470937   8.595132   4.546994   3.023743
    42  H   13.836011  12.977187  10.679171   8.001668   5.616881
    43  H   12.657143  11.441543   9.082135   8.978074   4.818792
    44  H    6.020436   5.004656   3.441747   8.547486   3.290462
    45  H    5.850000   4.093516   3.081373  10.901715   5.630921
    46  H    8.001657   5.850000   4.546994  12.467062   6.744237
    47  H    9.806750   7.751322   5.850000  12.114376   6.218758
    48  H   12.977180  12.558574  10.470933   5.850000   4.954602
                   26         27         28         29         30
    26  S    0.000000
    27  C    5.324075   0.000000
    28  C    5.667383   1.393137   0.000000
    29  C    4.928650   2.438660   1.410304   0.000000
    30  C    3.548630   2.836748   2.434665   1.390489   0.000000
    31  C    3.986363   6.243327   7.315687   7.325105   6.265166
    32  C    4.531069   7.577436   8.590473   8.481093   7.325104
    33  C    4.069299   8.079606   8.924206   8.590474   7.315687
    34  C    2.812839   7.402719   8.079605   7.577436   6.243327
    35  C    1.750707   6.005094   6.683747   6.230315   4.927339
    36  C    2.653147   5.291740   6.214263   6.064435   4.928931
    37  C    2.609819   3.866376   4.798169   4.745868   3.733405
    38  C    1.736015   3.663120   4.214913   3.795840   2.579734
    39  C    2.910750   2.459994   2.803143   2.416826   1.409162
    40  C    4.052296   1.402623   2.403462   2.788553   2.444557
    41  H    6.218759   1.086803   2.160255   3.426128   3.923440
    42  H    5.630919   3.415181   2.163228   1.086273   2.146960
    43  H    3.290459   3.923903   3.423390   2.158387   1.087302
    44  H    4.818795   6.098632   7.300091   7.516385   6.605613
    45  H    5.616882   8.374699   9.462562   9.443696   8.331604
    46  H    4.954605   9.163416   9.990782   9.615298   8.316038
    47  H    3.023743   8.073242   8.608848   7.948859   6.571988
    48  H    6.744235   2.146405   1.086328   2.164633   3.412445
                   31         32         33         34         35
    31  C    0.000000
    32  C    1.390489   0.000000
    33  C    2.434666   1.410304   0.000000
    34  C    2.836750   2.438660   1.393137   0.000000
    35  C    2.444556   2.788550   2.403460   1.402622   0.000000
    36  C    1.409163   2.416825   2.803143   2.459994   1.424132
    37  C    2.579734   3.795839   4.214913   3.663121   2.336551
    38  C    3.733404   4.745867   4.798168   3.866376   2.477113
    39  C    4.928931   6.064435   6.214263   5.291739   3.905658
    40  C    4.927338   6.230314   6.683746   6.005093   4.610503
    41  H    6.571990   7.948861   8.608851   8.073244   6.699392
    42  H    8.331605   9.443696   9.462562   8.374698   7.072136
    43  H    6.605612   7.516383   7.300089   6.098630   4.902741
    44  H    1.087303   2.158387   3.423391   3.923905   3.432447
    45  H    2.146959   1.086273   2.163227   3.415181   3.874555
    46  H    3.412445   2.164633   1.086328   2.146407   3.389656
    47  H    3.923441   3.426129   2.160256   1.086802   2.169053
    48  H    8.316037   9.615296   9.990781   9.163414   7.766190
                   36         37         38         39         40
    36  C    0.000000
    37  C    1.429564   0.000000
    38  C    2.361669   1.390818   0.000000
    39  C    3.647999   2.361670   1.429564   0.000000
    40  C    3.905657   2.477112   2.336551   1.424133   0.000000
    41  H    5.807610   4.430653   4.504973   3.447304   2.169054
    42  H    7.033813   5.760478   4.709883   3.402697   3.874558
    43  H    5.210461   4.221724   2.886940   2.166846   3.432447
    44  H    2.166848   2.886941   4.221724   5.210463   4.902740
    45  H    3.402696   4.709882   5.760477   7.033812   7.072134
    46  H    3.889214   5.300025   5.835413   7.259688   7.766190
    47  H    3.447303   4.504972   4.430651   5.807607   6.699390
    48  H    7.259688   5.835412   5.300024   3.889214   3.389656
                   41         42         43         44         45
    41  H    0.000000
    42  H    4.314058   0.000000
    43  H    5.010647   2.483523   0.000000
    44  H    6.248351   8.568619   7.097914   0.000000
    45  H    8.645583  10.430619   8.568617   2.483523   0.000000
    46  H    9.694165  10.459676   8.231747   4.313194   2.483787
    47  H    8.827034   8.645580   6.248347   5.010648   4.314058
    48  H    2.481240   2.483789   4.313193   8.231747  10.459675
                   46         47         48
    46  H    0.000000
    47  H    2.481244   0.000000
    48  H   11.061203   9.694162   0.000000
 Stoichiometry    C28H16S4
 Framework group  C1[X(C28H16S4)]
 Deg. of freedom   138
 Full point group                 C1      NOp   1
 Largest Abelian subgroup         C1      NOp   1
 Largest concise Abelian subgroup C1      NOp   1
                         Standard orientation:                         
 ---------------------------------------------------------------------
 Center     Atomic      Atomic             Coordinates (Angstroms)
 Number     Number       Type             X           Y           Z
 ---------------------------------------------------------------------
      1         16           0       -4.371576   -1.738955    0.573328
      2         16           0       -1.365938    0.709179   -1.066245
      3          6           0       -3.025922   -4.183492    0.219056
      4          6           0       -1.888292   -4.867724   -0.203383
      5          6           0       -0.802907   -4.179039   -0.783564
      6          6           0       -0.824108   -2.794248   -0.907513
      7          6           0       -4.913407    1.764474    0.414601
      8          6           0       -4.934608    3.149265    0.290649
      9          6           0       -3.849226    3.837950   -0.289539
     10          6           0       -2.711598    3.153716   -0.711983
     11          6           0       -2.692690    1.755138   -0.607250
     12          6           0       -3.770207    1.051158    0.002276
     13          6           0       -3.498034   -0.352257    0.000843
     14          6           0       -2.239483   -0.677517   -0.493758
     15          6           0       -1.967310   -2.080932   -0.495193
     16          6           0       -3.044831   -2.784912    0.114327
     17          1           0       -3.860071   -4.717671    0.666256
     18          1           0        0.072230   -4.734825   -1.107951
     19          1           0        0.011611   -2.264717   -1.358509
     20          1           0       -5.749125    1.234944    0.865601
     21          1           0       -5.809741    3.705052    0.615044
     22          1           0       -3.883130    4.920374   -0.375089
     23          1           0       -1.877449    3.687893   -1.159185
     24          1           0       -1.854391   -5.950148   -0.117837
     25         16           0        1.365940   -0.709180    1.066246
     26         16           0        4.371578    1.738954   -0.573326
     27          6           0        2.711595   -3.153717    0.711974
     28          6           0        3.849225   -3.837950    0.289535
     29          6           0        4.934610   -3.149265   -0.290646
     30          6           0        4.913409   -1.764473   -0.414595
     31          6           0        0.824109    2.794249    0.907519
     32          6           0        0.802909    4.179040    0.783567
     33          6           0        1.888291    4.867725    0.203379
     34          6           0        3.025919    4.183491   -0.219064
     35          6           0        3.044827    2.784913   -0.114332
     36          6           0        1.967310    2.080933    0.495194
     37          6           0        2.239483    0.677517    0.493761
     38          6           0        3.498034    0.352258   -0.000840
     39          6           0        3.770207   -1.051157   -0.002275
     40          6           0        2.692685   -1.755138    0.607246
     41          1           0        1.877446   -3.687896    1.159174
     42          1           0        5.809747   -3.705050   -0.615033
     43          1           0        5.749128   -1.234942   -0.865591
     44          1           0       -0.011609    2.264719    1.358520
     45          1           0       -0.072224    4.734827    1.107962
     46          1           0        1.854386    5.950148    0.117830
     47          1           0        3.860068    4.717668   -0.666266
     48          1           0        3.883125   -4.920374    0.375081
 ---------------------------------------------------------------------
 Rotational constants (GHZ):           0.1407322           0.1007980           0.0613546
 Counterpoise: doing full-system calculation.
 Standard basis: 6-311G(d,p) (5D, 7F)
 There are   736 symmetry adapted cartesian basis functions of A   symmetry.
 There are   704 symmetry adapted basis functions of A   symmetry.
   704 basis functions,  1208 primitive gaussians,   736 cartesian basis functions
   124 alpha electrons      124 beta electrons
       nuclear repulsion energy      3632.9871013329 Hartrees.
 NAtoms=   48 NActive=   48 NUniq=   48 SFac= 1.00D+00 NAtFMM=   60 NAOKFM=F Big=F
 Integral buffers will be    131072 words long.
 Raffenetti 2 integral format.
 Two-electron integral symmetry is turned on.
 Nuclear repulsion after empirical dispersion term =     3632.9310201657 Hartrees.
 One-electron integrals computed using PRISM.
 NBasis=   704 RedAO= T EigKep=  1.71D-04  NBF=   704
 NBsUse=   704 1.00D-06 EigRej= -1.00D+00 NBFU=   704
 ExpMin= 7.71D-02 ExpMax= 9.34D+04 ExpMxC= 3.17D+03 IAcc=3 IRadAn=         5 AccDes= 0.00D+00
 Harris functional with IExCor=  402 and IRadAn=       5 diagonalized for initial guess.
 HarFok:  IExCor=  402 AccDes= 0.00D+00 IRadAn=         5 IDoV= 1 UseB2=F ITyADJ=14
 ICtDFT=  3500011 ScaDFX=  1.000000  1.000000  1.000000  1.000000
 FoFCou: FMM=F IPFlag=           0 FMFlag=      100000 FMFlg1=           0
         NFxFlg=           0 DoJE=T BraDBF=F KetDBF=T FulRan=T
         wScrn=  0.000000 ICntrl=       500 IOpCl=  0 I1Cent=   200000004 NGrid=           0
         NMat0=    1 NMatS0=      1 NMatT0=    0 NMatD0=    1 NMtDS0=    0 NMtDT0=    0
 Petite list used in FoFCou.
 Requested convergence on RMS density matrix=1.00D-08 within 128 cycles.
 Requested convergence on MAX density matrix=1.00D-06.
 Requested convergence on             energy=1.00D-06.
 No special actions if energy rises.
 Integral accuracy reduced to 1.0D-05 until final iterations.
 Initial convergence to 1.0D-05 achieved.  Increase integral accuracy.
 SCF Done:  E(RB3LYP) =  -2669.80769366     A.U. after   15 cycles
            NFock= 15  Conv=0.75D-08     -V/T= 2.0026

 **********************************************************************

            Population analysis using the SCF density.

 **********************************************************************

 Orbital symmetries:
       Occupied  (A) (A) (A) (A) (A) (A) (A) (A) (A) (A) (A) (A)
                 (A) (A) (A) (A) (A) (A) (A) (A) (A) (A) (A) (A)
                 (A) (A) (A) (A) (A) (A) (A) (A) (A) (A) (A) (A)
                 (A) (A) (A) (A) (A) (A) (A) (A) (A) (A) (A) (A)
                 (A) (A) (A) (A) (A) (A) (A) (A) (A) (A) (A) (A)
                 (A) (A) (A) (A) (A) (A) (A) (A) (A) (A) (A) (A)
                 (A) (A) (A) (A) (A) (A) (A) (A) (A) (A) (A) (A)
                 (A) (A) (A) (A) (A) (A) (A) (A) (A) (A) (A) (A)
                 (A) (A) (A) (A) (A) (A) (A) (A) (A) (A) (A) (A)
                 (A) (A) (A) (A) (A) (A) (A) (A) (A) (A) (A) (A)
                 (A) (A) (A) (A)
       Virtual   (A) (A) (A) (A) (A) (A) (A) (A) (A) (A) (A) (A)
                 (A) (A) (A) (A) (A) (A) (A) (A) (A) (A) (A) (A)
                 (A) (A) (A) (A) (A) (A) (A) (A) (A) (A) (A) (A)
                 (A) (A) (A) (A) (A) (A) (A) (A) (A) (A) (A) (A)
                 (A) (A) (A) (A) (A) (A) (A) (A) (A) (A) (A) (A)
                 (A) (A) (A) (A) (A) (A) (A) (A) (A) (A) (A) (A)
                 (A) (A) (A) (A) (A) (A) (A) (A) (A) (A) (A) (A)
                 (A) (A) (A) (A) (A) (A) (A) (A) (A) (A) (A) (A)
                 (A) (A) (A) (A) (A) (A) (A) (A) (A) (A) (A) (A)
                 (A) (A) (A) (A) (A) (A) (A) (A) (A) (A) (A) (A)
                 (A) (A) (A) (A) (A) (A) (A) (A) (A) (A) (A) (A)
                 (A) (A) (A) (A) (A) (A) (A) (A) (A) (A) (A) (A)
                 (A) (A) (A) (A) (A) (A) (A) (A) (A) (A) (A) (A)
                 (A) (A) (A) (A) (A) (A) (A) (A) (A) (A) (A) (A)
                 (A) (A) (A) (A) (A) (A) (A) (A) (A) (A) (A) (A)
                 (A) (A) (A) (A) (A) (A) (A) (A) (A) (A) (A) (A)
                 (A) (A) (A) (A) (A) (A) (A) (A) (A) (A) (A) (A)
                 (A) (A) (A) (A) (A) (A) (A) (A) (A) (A) (A) (A)
                 (A) (A) (A) (A) (A) (A) (A) (A) (A) (A) (A) (A)
                 (A) (A) (A) (A) (A) (A) (A) (A) (A) (A) (A) (A)
                 (A) (A) (A) (A) (A) (A) (A) (A) (A) (A) (A) (A)
                 (A) (A) (A) (A) (A) (A) (A) (A) (A) (A) (A) (A)
                 (A) (A) (A) (A) (A) (A) (A) (A) (A) (A) (A) (A)
                 (A) (A) (A) (A) (A) (A) (A) (A) (A) (A) (A) (A)
                 (A) (A) (A) (A) (A) (A) (A) (A) (A) (A) (A) (A)
                 (A) (A) (A) (A) (A) (A) (A) (A) (A) (A) (A) (A)
                 (A) (A) (A) (A) (A) (A) (A) (A) (A) (A) (A) (A)
                 (A) (A) (A) (A) (A) (A) (A) (A) (A) (A) (A) (A)
                 (A) (A) (A) (A) (A) (A) (A) (A) (A) (A) (A) (A)
                 (A) (A) (A) (A) (A) (A) (A) (A) (A) (A) (A) (A)
                 (A) (A) (A) (A) (A) (A) (A) (A) (A) (A) (A) (A)
                 (A) (A) (A) (A) (A) (A) (A) (A) (A) (A) (A) (A)
                 (A) (A) (A) (A) (A) (A) (A) (A) (A) (A) (A) (A)
                 (A) (A) (A) (A) (A) (A) (A) (A) (A) (A) (A) (A)
                 (A) (A) (A) (A) (A) (A) (A) (A) (A) (A) (A) (A)
                 (A) (A) (A) (A) (A) (A) (A) (A) (A) (A) (A) (A)
                 (A) (A) (A) (A) (A) (A) (A) (A) (A) (A) (A) (A)
                 (A) (A) (A) (A) (A) (A) (A) (A) (A) (A) (A) (A)
                 (A) (A) (A) (A) (A) (A) (A) (A) (A) (A) (A) (A)
                 (A) (A) (A) (A) (A) (A) (A) (A) (A) (A) (A) (A)
                 (A) (A) (A) (A) (A) (A) (A) (A) (A) (A) (A) (A)
                 (A) (A) (A) (A) (A) (A) (A) (A) (A) (A) (A) (A)
                 (A) (A) (A) (A) (A) (A) (A) (A) (A) (A) (A) (A)
                 (A) (A) (A) (A) (A) (A) (A) (A) (A) (A) (A) (A)
                 (A) (A) (A) (A) (A) (A) (A) (A) (A) (A) (A) (A)
                 (A) (A) (A) (A) (A) (A) (A) (A) (A) (A) (A) (A)
                 (A) (A) (A) (A) (A) (A) (A) (A) (A) (A) (A) (A)
                 (A) (A) (A) (A) (A) (A) (A) (A) (A) (A) (A) (A)
                 (A) (A) (A) (A)
 The electronic state is 1-A.
 Alpha  occ. eigenvalues --  -88.88069 -88.88069 -88.87922 -88.87922 -10.21743
 Alpha  occ. eigenvalues --  -10.21743 -10.21679 -10.21678 -10.21222 -10.21222
 Alpha  occ. eigenvalues --  -10.21159 -10.21159 -10.20005 -10.20005 -10.19955
 Alpha  occ. eigenvalues --  -10.19955 -10.18993 -10.18993 -10.18950 -10.18950
 Alpha  occ. eigenvalues --  -10.18728 -10.18728 -10.18581 -10.18581 -10.18418
 Alpha  occ. eigenvalues --  -10.18418 -10.18408 -10.18408 -10.18280 -10.18280
 Alpha  occ. eigenvalues --  -10.18204 -10.18204  -7.96724  -7.96724  -7.96575
 Alpha  occ. eigenvalues --   -7.96574  -5.93053  -5.93053  -5.92902  -5.92902
 Alpha  occ. eigenvalues --   -5.92694  -5.92694  -5.92539  -5.92539  -5.92222
 Alpha  occ. eigenvalues --   -5.92222  -5.92074  -5.92073  -0.92257  -0.92212
 Alpha  occ. eigenvalues --   -0.88187  -0.88141  -0.84114  -0.84087  -0.82094
 Alpha  occ. eigenvalues --   -0.81961  -0.77723  -0.77695  -0.77372  -0.77218
 Alpha  occ. eigenvalues --   -0.73942  -0.73847  -0.72087  -0.72081  -0.69994
 Alpha  occ. eigenvalues --   -0.69890  -0.64582  -0.64528  -0.61499  -0.61424
 Alpha  occ. eigenvalues --   -0.59331  -0.59288  -0.58471  -0.58337  -0.57017
 Alpha  occ. eigenvalues --   -0.56798  -0.51439  -0.51302  -0.50209  -0.50082
 Alpha  occ. eigenvalues --   -0.49047  -0.49015  -0.47510  -0.47388  -0.45585
 Alpha  occ. eigenvalues --   -0.45574  -0.45434  -0.45402  -0.43999  -0.43881
 Alpha  occ. eigenvalues --   -0.43424  -0.43401  -0.43249  -0.42859  -0.40802
 Alpha  occ. eigenvalues --   -0.40751  -0.40539  -0.40296  -0.39305  -0.39037
 Alpha  occ. eigenvalues --   -0.37249  -0.37230  -0.36617  -0.36560  -0.36222
 Alpha  occ. eigenvalues --   -0.36018  -0.34715  -0.34636  -0.34628  -0.34544
 Alpha  occ. eigenvalues --   -0.34457  -0.34399  -0.32963  -0.32084  -0.29155
 Alpha  occ. eigenvalues --   -0.28493  -0.28201  -0.28150  -0.25114  -0.24783
 Alpha  occ. eigenvalues --   -0.22907  -0.22774  -0.21291  -0.20842
 Alpha virt. eigenvalues --   -0.05682  -0.05565  -0.02430  -0.02173  -0.01763
 Alpha virt. eigenvalues --   -0.01609  -0.00330  -0.00273   0.00306   0.00724
 Alpha virt. eigenvalues --    0.01864   0.02395   0.03800   0.04062   0.04194
 Alpha virt. eigenvalues --    0.04525   0.04667   0.05399   0.05750   0.06735
 Alpha virt. eigenvalues --    0.07079   0.07441   0.08152   0.08388   0.09240
 Alpha virt. eigenvalues --    0.09736   0.11361   0.11548   0.12332   0.12338
 Alpha virt. eigenvalues --    0.12614   0.13071   0.13366   0.13573   0.13949
 Alpha virt. eigenvalues --    0.13959   0.14219   0.14282   0.15551   0.15763
 Alpha virt. eigenvalues --    0.16771   0.16940   0.17735   0.18710   0.19484
 Alpha virt. eigenvalues --    0.21164   0.21257   0.22033   0.22973   0.23238
 Alpha virt. eigenvalues --    0.23372   0.23627   0.24585   0.24913   0.26869
 Alpha virt. eigenvalues --    0.27186   0.27578   0.27649   0.27724   0.27945
 Alpha virt. eigenvalues --    0.28369   0.28703   0.29032   0.29115   0.30194
 Alpha virt. eigenvalues --    0.31124   0.32610   0.33528   0.34482   0.34575
 Alpha virt. eigenvalues --    0.35288   0.35956   0.36768   0.36807   0.37140
 Alpha virt. eigenvalues --    0.37228   0.37844   0.38157   0.38701   0.38880
 Alpha virt. eigenvalues --    0.39155   0.39571   0.39697   0.39888   0.40205
 Alpha virt. eigenvalues --    0.40312   0.40912   0.40992   0.41705   0.41943
 Alpha virt. eigenvalues --    0.42151   0.42450   0.42746   0.43157   0.43511
 Alpha virt. eigenvalues --    0.43643   0.43981   0.44030   0.44149   0.44558
 Alpha virt. eigenvalues --    0.44584   0.45288   0.45596   0.46206   0.46248
 Alpha virt. eigenvalues --    0.46327   0.47369   0.47668   0.48246   0.48647
 Alpha virt. eigenvalues --    0.48805   0.49178   0.49388   0.50226   0.50795
 Alpha virt. eigenvalues --    0.50864   0.52476   0.53011   0.53308   0.53442
 Alpha virt. eigenvalues --    0.54425   0.54601   0.55753   0.56365   0.57035
 Alpha virt. eigenvalues --    0.58182   0.58310   0.58844   0.59019   0.59357
 Alpha virt. eigenvalues --    0.59445   0.59545   0.59956   0.60053   0.60518
 Alpha virt. eigenvalues --    0.60819   0.60831   0.61033   0.61512   0.61795
 Alpha virt. eigenvalues --    0.62529   0.62931   0.63697   0.63897   0.64566
 Alpha virt. eigenvalues --    0.64713   0.65513   0.65751   0.65856   0.66106
 Alpha virt. eigenvalues --    0.66767   0.67169   0.67514   0.68393   0.69333
 Alpha virt. eigenvalues --    0.70636   0.70830   0.71460   0.71844   0.72461
 Alpha virt. eigenvalues --    0.72482   0.72744   0.73404   0.73581   0.73673
 Alpha virt. eigenvalues --    0.73878   0.73987   0.74577   0.74736   0.75075
 Alpha virt. eigenvalues --    0.76717   0.76829   0.76866   0.77386   0.77959
 Alpha virt. eigenvalues --    0.78896   0.80062   0.80086   0.80816   0.81100
 Alpha virt. eigenvalues --    0.81147   0.81855   0.81865   0.82872   0.83412
 Alpha virt. eigenvalues --    0.84513   0.84558   0.85059   0.85393   0.85732
 Alpha virt. eigenvalues --    0.85899   0.86823   0.87171   0.87195   0.88530
 Alpha virt. eigenvalues --    0.88586   0.90046   0.90497   0.91008   0.91162
 Alpha virt. eigenvalues --    0.91859   0.92023   0.92917   0.93492   0.94539
 Alpha virt. eigenvalues --    0.95025   0.96121   0.96155   0.96638   0.97508
 Alpha virt. eigenvalues --    0.97880   0.97984   0.98744   0.99494   0.99703
 Alpha virt. eigenvalues --    1.00268   1.00517   1.00563   1.01662   1.02581
 Alpha virt. eigenvalues --    1.03968   1.04337   1.05917   1.06288   1.06590
 Alpha virt. eigenvalues --    1.07162   1.07628   1.08286   1.08722   1.08910
 Alpha virt. eigenvalues --    1.09229   1.09286   1.10026   1.10129   1.11311
 Alpha virt. eigenvalues --    1.11441   1.11841   1.12209   1.15573   1.16753
 Alpha virt. eigenvalues --    1.18505   1.18650   1.20610   1.20711   1.21748
 Alpha virt. eigenvalues --    1.22652   1.22763   1.23888   1.25311   1.25377
 Alpha virt. eigenvalues --    1.28110   1.28690   1.28943   1.29142   1.30123
 Alpha virt. eigenvalues --    1.30142   1.35017   1.35337   1.38847   1.39828
 Alpha virt. eigenvalues --    1.40382   1.41175   1.42204   1.42407   1.43074
 Alpha virt. eigenvalues --    1.43377   1.44582   1.44744   1.45292   1.45620
 Alpha virt. eigenvalues --    1.47309   1.47557   1.48112   1.49034   1.49594
 Alpha virt. eigenvalues --    1.50238   1.52546   1.52656   1.54289   1.54313
 Alpha virt. eigenvalues --    1.54406   1.54615   1.56159   1.56194   1.57143
 Alpha virt. eigenvalues --    1.57339   1.58120   1.58943   1.59079   1.59276
 Alpha virt. eigenvalues --    1.59981   1.60336   1.60884   1.61000   1.61392
 Alpha virt. eigenvalues --    1.61491   1.62572   1.62668   1.63431   1.63917
 Alpha virt. eigenvalues --    1.64497   1.64779   1.67745   1.67971   1.69068
 Alpha virt. eigenvalues --    1.70019   1.70863   1.71352   1.71926   1.72965
 Alpha virt. eigenvalues --    1.73212   1.73286   1.73480   1.73735   1.75082
 Alpha virt. eigenvalues --    1.75138   1.76254   1.76424   1.80210   1.80452
 Alpha virt. eigenvalues --    1.81280   1.81288   1.81443   1.82204   1.82680
 Alpha virt. eigenvalues --    1.83210   1.83939   1.83941   1.84292   1.84454
 Alpha virt. eigenvalues --    1.85308   1.85331   1.87589   1.87681   1.89307
 Alpha virt. eigenvalues --    1.89316   1.89421   1.89882   1.90023   1.90054
 Alpha virt. eigenvalues --    1.90088   1.90328   1.91113   1.91372   1.91672
 Alpha virt. eigenvalues --    1.92254   1.93363   1.93898   1.94535   1.94810
 Alpha virt. eigenvalues --    1.95612   1.95715   1.96394   1.96600   1.97186
 Alpha virt. eigenvalues --    1.97984   1.99660   1.99760   2.00170   2.00343
 Alpha virt. eigenvalues --    2.01136   2.01331   2.02270   2.03013   2.03176
 Alpha virt. eigenvalues --    2.03383   2.04041   2.04913   2.06519   2.08012
 Alpha virt. eigenvalues --    2.08447   2.08479   2.11131   2.11665   2.12503
 Alpha virt. eigenvalues --    2.14765   2.15290   2.15368   2.22774   2.23151
 Alpha virt. eigenvalues --    2.25194   2.26056   2.26637   2.26753   2.27143
 Alpha virt. eigenvalues --    2.27293   2.28463   2.29425   2.32416   2.32825
 Alpha virt. eigenvalues --    2.32874   2.32974   2.32976   2.33496   2.34092
 Alpha virt. eigenvalues --    2.34118   2.34886   2.35139   2.36187   2.36875
 Alpha virt. eigenvalues --    2.37902   2.38718   2.40671   2.40946   2.48166
 Alpha virt. eigenvalues --    2.48457   2.52053   2.52505   2.54385   2.55196
 Alpha virt. eigenvalues --    2.56466   2.56575   2.56660   2.57317   2.57847
 Alpha virt. eigenvalues --    2.58005   2.59998   2.60115   2.60447   2.60662
 Alpha virt. eigenvalues --    2.61356   2.61448   2.62973   2.63447   2.63732
 Alpha virt. eigenvalues --    2.64026   2.64430   2.64560   2.65181   2.65232
 Alpha virt. eigenvalues --    2.65656   2.65933   2.68380   2.68660   2.68903
 Alpha virt. eigenvalues --    2.69147   2.69267   2.70394   2.70695   2.71381
 Alpha virt. eigenvalues --    2.72592   2.73022   2.73950   2.73974   2.76385
 Alpha virt. eigenvalues --    2.76490   2.78102   2.79980   2.80154   2.81044
 Alpha virt. eigenvalues --    2.81703   2.81950   2.82156   2.82220   2.82515
 Alpha virt. eigenvalues --    2.83787   2.84517   2.86260   2.86285   2.87815
 Alpha virt. eigenvalues --    2.88080   2.89269   2.91902   2.92222   2.92271
 Alpha virt. eigenvalues --    2.95580   2.98022   2.98954   3.04274   3.04515
 Alpha virt. eigenvalues --    3.06590   3.06821   3.07498   3.09136   3.10860
 Alpha virt. eigenvalues --    3.10999   3.15516   3.16814   3.17020   3.18514
 Alpha virt. eigenvalues --    3.23295   3.23668   3.24539   3.25307   3.29542
 Alpha virt. eigenvalues --    3.30522   3.30573   3.31168   3.31707   3.33324
 Alpha virt. eigenvalues --    3.35099   3.35253   3.38738   3.39612   3.42679
 Alpha virt. eigenvalues --    3.43673   3.44651   3.45264   3.45640   3.46740
 Alpha virt. eigenvalues --    3.50923   3.51512   3.54965   3.55355   3.56076
 Alpha virt. eigenvalues --    3.56306   3.63187   3.63235   3.76172   3.76964
 Alpha virt. eigenvalues --    3.82452   3.82949   3.98712   3.98906   4.00482
 Alpha virt. eigenvalues --    4.00587   4.01757   4.02009   4.04105   4.04251
 Alpha virt. eigenvalues --    4.11631   4.11800   4.12155   4.12596   4.20037
 Alpha virt. eigenvalues --    4.20440   4.55112   4.55189   4.79880   4.79919
 Alpha virt. eigenvalues --    4.79979   4.80132   7.82085   7.82097   7.86284
 Alpha virt. eigenvalues --    7.88473  17.20080  17.20281  17.22260  17.25234
 Alpha virt. eigenvalues --   17.44509  17.44860  17.51856  17.52101  17.52283
 Alpha virt. eigenvalues --   17.53700  17.57506  17.57875  23.35496  23.36666
 Alpha virt. eigenvalues --   23.54268  23.54618  23.69085  23.69584  23.85658
 Alpha virt. eigenvalues --   23.85871  23.86423  23.86426  23.90355  23.90366
 Alpha virt. eigenvalues --   23.92211  23.92230  23.98240  23.98388  24.01200
 Alpha virt. eigenvalues --   24.01226  24.03838  24.03845  24.07343  24.07413
 Alpha virt. eigenvalues --   24.07480  24.07582  24.14792  24.14830  24.14923
 Alpha virt. eigenvalues --   24.14970 188.93578 188.93600 188.98298 189.01186
          Condensed to atoms (all electrons):
               1          2          3          4          5          6
     1  S   15.373431   0.009792  -0.061661   0.005992  -0.000184   0.009495
     2  S    0.009792  15.405953  -0.000134  -0.000064   0.000383   0.002779
     3  C   -0.061661  -0.000134   4.865274   0.508959  -0.037863  -0.055922
     4  C    0.005992  -0.000064   0.508959   4.892295   0.482614  -0.048063
     5  C   -0.000184   0.000383  -0.037863   0.482614   4.904525   0.499654
     6  C    0.009495   0.002779  -0.055922  -0.048063   0.499654   4.905665
     7  C    0.002479   0.009528  -0.000000   0.000000  -0.000000  -0.000001
     8  C    0.000323  -0.000242   0.000000  -0.000000   0.000000  -0.000000
     9  C   -0.000034   0.005761  -0.000000   0.000000  -0.000000   0.000000
    10  C   -0.000174  -0.062021   0.000000  -0.000000   0.000000   0.000000
    11  C    0.008894   0.301801   0.000033  -0.000002   0.000003  -0.000261
    12  C   -0.071066  -0.092252  -0.000509   0.000027  -0.000019   0.000067
    13  C    0.315555  -0.091068  -0.000478  -0.000003  -0.000653   0.011593
    14  C   -0.091140   0.305902   0.017720  -0.001424   0.014435  -0.088552
    15  C   -0.088726  -0.072558   0.009109  -0.052586  -0.026909   0.473653
    16  C    0.307299   0.007883   0.439093  -0.044795  -0.057927  -0.041218
    17  H   -0.003234   0.000025   0.420082  -0.037554   0.007481  -0.000678
    18  H    0.000107  -0.000001   0.007042  -0.043236   0.412054  -0.038098
    19  H   -0.000609   0.003396  -0.001085   0.007756  -0.040354   0.421279
    20  H    0.003251  -0.000618  -0.000003   0.000000  -0.000000   0.000000
    21  H   -0.000002   0.000112   0.000000  -0.000000  -0.000000   0.000000
    22  H   -0.000003  -0.000366  -0.000000   0.000000   0.000000   0.000000
    23  H    0.000021  -0.003040   0.000000  -0.000000   0.000000   0.000000
    24  H   -0.000371  -0.000003  -0.041197   0.414136  -0.043282   0.007779
    25  S   -0.000260  -0.005525   0.000224  -0.000486   0.001539   0.007057
    26  S   -0.000000  -0.000260   0.000000  -0.000000   0.000000   0.000013
    27  C    0.000001   0.000004  -0.000005  -0.000167  -0.000880  -0.000727
    28  C    0.000000   0.000006   0.000000  -0.000009  -0.000179   0.000045
    29  C   -0.000000   0.000001   0.000000   0.000000  -0.000005  -0.000010
    30  C    0.000000   0.000004   0.000000  -0.000000   0.000002   0.000014
    31  C    0.000013   0.007057  -0.000000  -0.000000   0.000000   0.000003
    32  C    0.000000   0.001539  -0.000000  -0.000000   0.000000   0.000000
    33  C   -0.000000  -0.000486   0.000000   0.000000  -0.000000  -0.000000
    34  C    0.000000   0.000224  -0.000000   0.000000  -0.000000  -0.000000
    35  C   -0.000000  -0.001579  -0.000000  -0.000000  -0.000000  -0.000000
    36  C   -0.000004  -0.008186   0.000000  -0.000000  -0.000000  -0.000017
    37  C   -0.000003   0.003574   0.000000  -0.000000   0.000011  -0.000228
    38  C    0.000000   0.000904  -0.000000   0.000000  -0.000003  -0.000063
    39  C    0.000000   0.000013  -0.000000   0.000001   0.000004  -0.000293
    40  C   -0.000007  -0.000895   0.000003   0.000016   0.000150  -0.001116
    41  H    0.000011   0.000025  -0.000026   0.000618   0.003386   0.000948
    42  H   -0.000000   0.000000  -0.000000   0.000000  -0.000000   0.000000
    43  H    0.000000  -0.000000   0.000000  -0.000000  -0.000000   0.000000
    44  H   -0.000044  -0.013557   0.000000  -0.000000  -0.000000  -0.000002
    45  H    0.000000  -0.000017   0.000000  -0.000000   0.000000  -0.000000
    46  H   -0.000000   0.000004  -0.000000   0.000000  -0.000000   0.000000
    47  H    0.000000   0.000004   0.000000  -0.000000   0.000000   0.000000
    48  H    0.000000   0.000000  -0.000000  -0.000001   0.000021  -0.000001
               7          8          9         10         11         12
     1  S    0.002479   0.000323  -0.000034  -0.000174   0.008894  -0.071066
     2  S    0.009528  -0.000242   0.005761  -0.062021   0.301801  -0.092252
     3  C   -0.000000   0.000000  -0.000000   0.000000   0.000033  -0.000509
     4  C    0.000000  -0.000000   0.000000  -0.000000  -0.000002   0.000027
     5  C   -0.000000   0.000000  -0.000000   0.000000   0.000003  -0.000019
     6  C   -0.000001  -0.000000   0.000000   0.000000  -0.000261   0.000067
     7  C    4.873738   0.511828  -0.052700  -0.052409  -0.044968   0.483738
     8  C    0.511828   4.881464   0.491182  -0.040644  -0.054519  -0.029665
     9  C   -0.052700   0.491182   4.887759   0.510430  -0.049648  -0.050001
    10  C   -0.052409  -0.040644   0.510430   4.868577   0.448871   0.004884
    11  C   -0.044968  -0.054519  -0.049648   0.448871   5.400903   0.405324
    12  C    0.483738  -0.029665  -0.050001   0.004884   0.405324   4.967369
    13  C   -0.087781   0.013276  -0.000901   0.017079  -0.096262   0.391316
    14  C    0.011201  -0.000593  -0.000083  -0.000225  -0.087703  -0.014533
    15  C    0.000035  -0.000016   0.000024  -0.000515   0.003015   0.021085
    16  C   -0.000287   0.000002  -0.000002   0.000032  -0.000065   0.003643
    17  H   -0.000000   0.000000  -0.000000   0.000000   0.000001  -0.000009
    18  H    0.000000  -0.000000  -0.000000   0.000000  -0.000000   0.000000
    19  H    0.000000  -0.000000   0.000000  -0.000005  -0.000136   0.000035
    20  H    0.419952  -0.039682   0.007600  -0.000929   0.008919  -0.045736
    21  H   -0.037934   0.411254  -0.041931   0.006994   0.000269   0.007529
    22  H    0.007642  -0.042827   0.414399  -0.041797   0.008872  -0.000327
    23  H   -0.000483   0.007014  -0.037607   0.416748  -0.043917   0.007025
    24  H    0.000000   0.000000   0.000000  -0.000000  -0.000000  -0.000000
    25  S    0.000004   0.000001   0.000006   0.000004  -0.000895   0.000013
    26  S    0.000000  -0.000000   0.000000   0.000001  -0.000007   0.000000
    27  C    0.000000  -0.000000   0.000000  -0.000000  -0.000000  -0.000000
    28  C    0.000000   0.000000  -0.000000   0.000000   0.000000  -0.000000
    29  C    0.000000  -0.000000   0.000000  -0.000000  -0.000000   0.000000
    30  C   -0.000000   0.000000   0.000000   0.000000   0.000000  -0.000000
    31  C    0.000014  -0.000010   0.000045  -0.000727  -0.001116  -0.000293
    32  C    0.000002  -0.000005  -0.000179  -0.000880   0.000150   0.000004
    33  C   -0.000000   0.000000  -0.000009  -0.000167   0.000016   0.000001
    34  C    0.000000   0.000000   0.000000  -0.000005   0.000003  -0.000000
    35  C   -0.000000   0.000000  -0.000000   0.000004  -0.000004   0.000000
    36  C   -0.000001  -0.000000   0.000009   0.000149  -0.000110  -0.000006
    37  C    0.000000  -0.000000   0.000000  -0.000014   0.000060  -0.000004
    38  C    0.000000   0.000000  -0.000000  -0.000000   0.000001   0.000000
    39  C   -0.000000   0.000000  -0.000000  -0.000000   0.000000  -0.000000
    40  C    0.000000  -0.000000   0.000000  -0.000000   0.000000   0.000000
    41  H   -0.000000  -0.000000   0.000000  -0.000000  -0.000000  -0.000000
    42  H    0.000000  -0.000000   0.000000  -0.000000  -0.000000   0.000000
    43  H   -0.000000   0.000000  -0.000000   0.000000   0.000000  -0.000000
    44  H   -0.000098  -0.000029  -0.000137   0.002044   0.000174   0.000803
    45  H   -0.000015   0.000002   0.000790   0.001813   0.000078  -0.000035
    46  H    0.000000   0.000000  -0.000002  -0.000009   0.000000   0.000000
    47  H    0.000000  -0.000000   0.000000   0.000000  -0.000000  -0.000000
    48  H   -0.000000   0.000000  -0.000000   0.000000   0.000000  -0.000000
              13         14         15         16         17         18
     1  S    0.315555  -0.091140  -0.088726   0.307299  -0.003234   0.000107
     2  S   -0.091068   0.305902  -0.072558   0.007883   0.000025  -0.000001
     3  C   -0.000478   0.017720   0.009109   0.439093   0.420082   0.007042
     4  C   -0.000003  -0.001424  -0.052586  -0.044795  -0.037554  -0.043236
     5  C   -0.000653   0.014435  -0.026909  -0.057927   0.007481   0.412054
     6  C    0.011593  -0.088552   0.473653  -0.041218  -0.000678  -0.038098
     7  C   -0.087781   0.011201   0.000035  -0.000287  -0.000000   0.000000
     8  C    0.013276  -0.000593  -0.000016   0.000002   0.000000  -0.000000
     9  C   -0.000901  -0.000083   0.000024  -0.000002  -0.000000  -0.000000
    10  C    0.017079  -0.000225  -0.000515   0.000032   0.000000   0.000000
    11  C   -0.096262  -0.087703   0.003015  -0.000065   0.000001  -0.000000
    12  C    0.391316  -0.014533   0.021085   0.003643  -0.000009   0.000000
    13  C    5.463185   0.363252  -0.014149  -0.088227  -0.000123   0.000014
    14  C    0.363252   5.470587   0.386174  -0.098204  -0.000317  -0.000451
    15  C   -0.014149   0.386174   4.964167   0.405539   0.007374   0.007734
    16  C   -0.088227  -0.098204   0.405539   5.401274  -0.047797   0.000144
    17  H   -0.000123  -0.000317   0.007374  -0.047797   0.565693  -0.000308
    18  H    0.000014  -0.000451   0.007734   0.000144  -0.000308   0.566995
    19  H   -0.000049  -0.012819  -0.044246   0.009150   0.000062  -0.007498
    20  H   -0.012136   0.000102   0.000014  -0.000105   0.000000   0.000000
    21  H   -0.000470   0.000016   0.000000  -0.000000  -0.000000   0.000000
    22  H   -0.000001   0.000010  -0.000000  -0.000000   0.000000   0.000000
    23  H   -0.000371  -0.000111  -0.000007   0.000000   0.000000   0.000000
    24  H    0.000011  -0.000007  -0.000403   0.008978  -0.007820  -0.007472
    25  S    0.000904   0.003574  -0.008186  -0.001579   0.000004  -0.000017
    26  S    0.000000  -0.000003  -0.000004  -0.000000   0.000000   0.000000
    27  C   -0.000000  -0.000014   0.000149   0.000004   0.000000   0.001813
    28  C   -0.000000   0.000000   0.000009  -0.000000   0.000000   0.000790
    29  C    0.000000  -0.000000  -0.000000   0.000000  -0.000000   0.000002
    30  C    0.000000   0.000000  -0.000001  -0.000000   0.000000  -0.000015
    31  C   -0.000063  -0.000228  -0.000017  -0.000000   0.000000  -0.000000
    32  C   -0.000003   0.000011  -0.000000  -0.000000   0.000000   0.000000
    33  C    0.000000  -0.000000  -0.000000  -0.000000  -0.000000  -0.000000
    34  C   -0.000000   0.000000   0.000000  -0.000000   0.000000   0.000000
    35  C    0.000000   0.000000   0.000001   0.000000  -0.000000   0.000000
    36  C    0.000010   0.000126   0.000016   0.000001  -0.000000  -0.000000
    37  C   -0.000012  -0.000148   0.000126   0.000000  -0.000000   0.000004
    38  C   -0.000000  -0.000012   0.000010   0.000000  -0.000000   0.000001
    39  C    0.000000  -0.000004  -0.000006   0.000000  -0.000000  -0.000035
    40  C    0.000001   0.000060  -0.000110  -0.000004  -0.000000   0.000078
    41  H    0.000002  -0.000021  -0.000295  -0.000064  -0.000001  -0.000201
    42  H   -0.000000   0.000000   0.000000   0.000000  -0.000000  -0.000000
    43  H    0.000000   0.000000  -0.000000  -0.000000   0.000000  -0.000000
    44  H    0.000396  -0.000494  -0.000003   0.000003  -0.000000  -0.000000
    45  H    0.000001   0.000004  -0.000000   0.000000   0.000000   0.000000
    46  H   -0.000000   0.000000   0.000000  -0.000000  -0.000000  -0.000000
    47  H   -0.000000  -0.000000  -0.000000  -0.000000   0.000000   0.000000
    48  H    0.000000  -0.000000   0.000000  -0.000000  -0.000000   0.000078
              19         20         21         22         23         24
     1  S   -0.000609   0.003251  -0.000002  -0.000003   0.000021  -0.000371
     2  S    0.003396  -0.000618   0.000112  -0.000366  -0.003040  -0.000003
     3  C   -0.001085  -0.000003   0.000000  -0.000000   0.000000  -0.041197
     4  C    0.007756   0.000000  -0.000000   0.000000  -0.000000   0.414136
     5  C   -0.040354  -0.000000  -0.000000   0.000000   0.000000  -0.043282
     6  C    0.421279   0.000000   0.000000   0.000000   0.000000   0.007779
     7  C    0.000000   0.419952  -0.037934   0.007642  -0.000483   0.000000
     8  C   -0.000000  -0.039682   0.411254  -0.042827   0.007014   0.000000
     9  C    0.000000   0.007600  -0.041931   0.414399  -0.037607   0.000000
    10  C   -0.000005  -0.000929   0.006994  -0.041797   0.416748  -0.000000
    11  C   -0.000136   0.008919   0.000269   0.008872  -0.043917  -0.000000
    12  C    0.000035  -0.045736   0.007529  -0.000327   0.007025  -0.000000
    13  C   -0.000049  -0.012136  -0.000470  -0.000001  -0.000371   0.000011
    14  C   -0.012819   0.000102   0.000016   0.000010  -0.000111  -0.000007
    15  C   -0.044246   0.000014   0.000000  -0.000000  -0.000007  -0.000403
    16  C    0.009150  -0.000105  -0.000000  -0.000000   0.000000   0.008978
    17  H    0.000062   0.000000  -0.000000   0.000000   0.000000  -0.007820
    18  H   -0.007498   0.000000   0.000000   0.000000   0.000000  -0.007472
    19  H    0.558377   0.000000   0.000000   0.000000   0.000000  -0.000300
    20  H    0.000000   0.571591  -0.007650  -0.000307   0.000065   0.000000
    21  H    0.000000  -0.007650   0.571999  -0.007489  -0.000311   0.000000
    22  H    0.000000  -0.000307  -0.007489   0.571628  -0.007575  -0.000000
    23  H    0.000000   0.000065  -0.000311  -0.007575   0.553068   0.000000
    24  H   -0.000300   0.000000   0.000000  -0.000000   0.000000   0.571506
    25  S   -0.013557  -0.000000   0.000000   0.000000   0.000025   0.000004
    26  S   -0.000044   0.000000  -0.000000   0.000000   0.000011  -0.000000
    27  C    0.002044   0.000000  -0.000000   0.000000  -0.000000  -0.000009
    28  C   -0.000137  -0.000000   0.000000  -0.000000   0.000000  -0.000002
    29  C   -0.000029   0.000000  -0.000000   0.000000  -0.000000   0.000000
    30  C   -0.000098  -0.000000   0.000000  -0.000000  -0.000000   0.000000
    31  C   -0.000002   0.000000   0.000000  -0.000001   0.000948   0.000000
    32  C   -0.000000  -0.000000  -0.000000   0.000021   0.003386  -0.000000
    33  C   -0.000000  -0.000000   0.000000  -0.000001   0.000618   0.000000
    34  C    0.000000   0.000000  -0.000000  -0.000000  -0.000026  -0.000000
    35  C    0.000003  -0.000000   0.000000  -0.000000  -0.000064  -0.000000
    36  C   -0.000003  -0.000000   0.000000   0.000000  -0.000295   0.000000
    37  C   -0.000494   0.000000   0.000000  -0.000000  -0.000021   0.000000
    38  C    0.000396   0.000000  -0.000000   0.000000   0.000002  -0.000000
    39  C    0.000803  -0.000000   0.000000  -0.000000  -0.000000   0.000000
    40  C    0.000174   0.000000  -0.000000   0.000000  -0.000000   0.000000
    41  H    0.000072   0.000000  -0.000000   0.000000  -0.000000   0.000019
    42  H    0.000000   0.000000  -0.000000   0.000000  -0.000000  -0.000000
    43  H   -0.000001  -0.000000   0.000000  -0.000000   0.000000  -0.000000
    44  H    0.000007  -0.000001   0.000000  -0.000000   0.000072  -0.000000
    45  H   -0.000000  -0.000000  -0.000000   0.000078  -0.000201  -0.000000
    46  H   -0.000000  -0.000000  -0.000000  -0.000000   0.000019   0.000000
    47  H   -0.000000   0.000000  -0.000000  -0.000000  -0.000001  -0.000000
    48  H   -0.000000  -0.000000   0.000000  -0.000000   0.000000  -0.000000
              25         26         27         28         29         30
     1  S   -0.000260  -0.000000   0.000001   0.000000  -0.000000   0.000000
     2  S   -0.005525  -0.000260   0.000004   0.000006   0.000001   0.000004
     3  C    0.000224   0.000000  -0.000005   0.000000   0.000000   0.000000
     4  C   -0.000486  -0.000000  -0.000167  -0.000009   0.000000  -0.000000
     5  C    0.001539   0.000000  -0.000880  -0.000179  -0.000005   0.000002
     6  C    0.007057   0.000013  -0.000727   0.000045  -0.000010   0.000014
     7  C    0.000004   0.000000   0.000000   0.000000   0.000000  -0.000000
     8  C    0.000001  -0.000000  -0.000000   0.000000  -0.000000   0.000000
     9  C    0.000006   0.000000   0.000000  -0.000000   0.000000   0.000000
    10  C    0.000004   0.000001  -0.000000   0.000000  -0.000000   0.000000
    11  C   -0.000895  -0.000007  -0.000000   0.000000  -0.000000   0.000000
    12  C    0.000013   0.000000  -0.000000  -0.000000   0.000000  -0.000000
    13  C    0.000904   0.000000  -0.000000  -0.000000   0.000000   0.000000
    14  C    0.003574  -0.000003  -0.000014   0.000000  -0.000000   0.000000
    15  C   -0.008186  -0.000004   0.000149   0.000009  -0.000000  -0.000001
    16  C   -0.001579  -0.000000   0.000004  -0.000000   0.000000  -0.000000
    17  H    0.000004   0.000000   0.000000   0.000000  -0.000000   0.000000
    18  H   -0.000017   0.000000   0.001813   0.000790   0.000002  -0.000015
    19  H   -0.013557  -0.000044   0.002044  -0.000137  -0.000029  -0.000098
    20  H   -0.000000   0.000000   0.000000  -0.000000   0.000000  -0.000000
    21  H    0.000000  -0.000000  -0.000000   0.000000  -0.000000   0.000000
    22  H    0.000000   0.000000   0.000000  -0.000000   0.000000  -0.000000
    23  H    0.000025   0.000011  -0.000000   0.000000  -0.000000  -0.000000
    24  H    0.000004  -0.000000  -0.000009  -0.000002   0.000000   0.000000
    25  S   15.405951   0.009792  -0.062021   0.005761  -0.000242   0.009528
    26  S    0.009792  15.373434  -0.000174  -0.000034   0.000323   0.002478
    27  C   -0.062021  -0.000174   4.868577   0.510431  -0.040644  -0.052408
    28  C    0.005761  -0.000034   0.510431   4.887757   0.491183  -0.052700
    29  C   -0.000242   0.000323  -0.040644   0.491183   4.881463   0.511828
    30  C    0.009528   0.002478  -0.052408  -0.052700   0.511828   4.873737
    31  C    0.002779   0.009495   0.000000   0.000000  -0.000000  -0.000001
    32  C    0.000383  -0.000184   0.000000  -0.000000   0.000000  -0.000000
    33  C   -0.000064   0.005992  -0.000000   0.000000  -0.000000   0.000000
    34  C   -0.000134  -0.061661   0.000000  -0.000000   0.000000  -0.000000
    35  C    0.007883   0.307299   0.000032  -0.000002   0.000002  -0.000287
    36  C   -0.072557  -0.088726  -0.000515   0.000024  -0.000016   0.000035
    37  C    0.305902  -0.091140  -0.000225  -0.000083  -0.000593   0.011201
    38  C   -0.091067   0.315555   0.017079  -0.000901   0.013276  -0.087781
    39  C   -0.092252  -0.071066   0.004883  -0.050001  -0.029665   0.483739
    40  C    0.301802   0.008894   0.448872  -0.049649  -0.054519  -0.044969
    41  H   -0.003040   0.000021   0.416748  -0.037607   0.007014  -0.000483
    42  H    0.000112  -0.000002   0.006994  -0.041931   0.411254  -0.037934
    43  H   -0.000618   0.003251  -0.000929   0.007600  -0.039682   0.419952
    44  H    0.003396  -0.000609  -0.000005   0.000000  -0.000000   0.000000
    45  H   -0.000001   0.000107   0.000000  -0.000000  -0.000000   0.000000
    46  H   -0.000003  -0.000371  -0.000000   0.000000   0.000000   0.000000
    47  H    0.000025  -0.003234   0.000000  -0.000000   0.000000  -0.000000
    48  H   -0.000366  -0.000003  -0.041797   0.414399  -0.042827   0.007642
              31         32         33         34         35         36
     1  S    0.000013   0.000000  -0.000000   0.000000  -0.000000  -0.000004
     2  S    0.007057   0.001539  -0.000486   0.000224  -0.001579  -0.008186
     3  C   -0.000000  -0.000000   0.000000  -0.000000  -0.000000   0.000000
     4  C   -0.000000  -0.000000   0.000000   0.000000  -0.000000  -0.000000
     5  C    0.000000   0.000000  -0.000000  -0.000000  -0.000000  -0.000000
     6  C    0.000003   0.000000  -0.000000  -0.000000  -0.000000  -0.000017
     7  C    0.000014   0.000002  -0.000000   0.000000  -0.000000  -0.000001
     8  C   -0.000010  -0.000005   0.000000   0.000000   0.000000  -0.000000
     9  C    0.000045  -0.000179  -0.000009   0.000000  -0.000000   0.000009
    10  C   -0.000727  -0.000880  -0.000167  -0.000005   0.000004   0.000149
    11  C   -0.001116   0.000150   0.000016   0.000003  -0.000004  -0.000110
    12  C   -0.000293   0.000004   0.000001  -0.000000   0.000000  -0.000006
    13  C   -0.000063  -0.000003   0.000000  -0.000000   0.000000   0.000010
    14  C   -0.000228   0.000011  -0.000000   0.000000   0.000000   0.000126
    15  C   -0.000017  -0.000000  -0.000000   0.000000   0.000001   0.000016
    16  C   -0.000000  -0.000000  -0.000000  -0.000000   0.000000   0.000001
    17  H    0.000000   0.000000  -0.000000   0.000000  -0.000000  -0.000000
    18  H   -0.000000   0.000000  -0.000000   0.000000   0.000000  -0.000000
    19  H   -0.000002  -0.000000  -0.000000   0.000000   0.000003  -0.000003
    20  H    0.000000  -0.000000  -0.000000   0.000000  -0.000000  -0.000000
    21  H    0.000000  -0.000000   0.000000  -0.000000   0.000000   0.000000
    22  H   -0.000001   0.000021  -0.000001  -0.000000  -0.000000   0.000000
    23  H    0.000948   0.003386   0.000618  -0.000026  -0.000064  -0.000295
    24  H    0.000000  -0.000000   0.000000  -0.000000  -0.000000   0.000000
    25  S    0.002779   0.000383  -0.000064  -0.000134   0.007883  -0.072557
    26  S    0.009495  -0.000184   0.005992  -0.061661   0.307299  -0.088726
    27  C    0.000000   0.000000  -0.000000   0.000000   0.000032  -0.000515
    28  C    0.000000  -0.000000   0.000000  -0.000000  -0.000002   0.000024
    29  C   -0.000000   0.000000  -0.000000   0.000000   0.000002  -0.000016
    30  C   -0.000001  -0.000000   0.000000  -0.000000  -0.000287   0.000035
    31  C    4.905665   0.499653  -0.048063  -0.055922  -0.041217   0.473652
    32  C    0.499653   4.904525   0.482614  -0.037863  -0.057927  -0.026909
    33  C   -0.048063   0.482614   4.892296   0.508958  -0.044795  -0.052586
    34  C   -0.055922  -0.037863   0.508958   4.865275   0.439093   0.009109
    35  C   -0.041217  -0.057927  -0.044795   0.439093   5.401274   0.405539
    36  C    0.473652  -0.026909  -0.052586   0.009109   0.405539   4.964169
    37  C   -0.088553   0.014435  -0.001424   0.017720  -0.098204   0.386173
    38  C    0.011593  -0.000653  -0.000003  -0.000478  -0.088227  -0.014149
    39  C    0.000067  -0.000019   0.000027  -0.000509   0.003643   0.021084
    40  C   -0.000261   0.000003  -0.000002   0.000033  -0.000065   0.003015
    41  H    0.000000   0.000000  -0.000000   0.000000   0.000000  -0.000007
    42  H    0.000000  -0.000000  -0.000000   0.000000  -0.000000   0.000000
    43  H    0.000000  -0.000000   0.000000  -0.000003  -0.000105   0.000014
    44  H    0.421280  -0.040354   0.007756  -0.001085   0.009151  -0.044246
    45  H   -0.038098   0.412054  -0.043236   0.007042   0.000144   0.007734
    46  H    0.007779  -0.043282   0.414136  -0.041197   0.008978  -0.000403
    47  H   -0.000678   0.007481  -0.037554   0.420082  -0.047797   0.007374
    48  H    0.000000   0.000000   0.000000  -0.000000  -0.000000  -0.000000
              37         38         39         40         41         42
     1  S   -0.000003   0.000000   0.000000  -0.000007   0.000011  -0.000000
     2  S    0.003574   0.000904   0.000013  -0.000895   0.000025   0.000000
     3  C    0.000000  -0.000000  -0.000000   0.000003  -0.000026  -0.000000
     4  C   -0.000000   0.000000   0.000001   0.000016   0.000618   0.000000
     5  C    0.000011  -0.000003   0.000004   0.000150   0.003386  -0.000000
     6  C   -0.000228  -0.000063  -0.000293  -0.001116   0.000948   0.000000
     7  C    0.000000   0.000000  -0.000000   0.000000  -0.000000   0.000000
     8  C   -0.000000   0.000000   0.000000  -0.000000  -0.000000  -0.000000
     9  C    0.000000  -0.000000  -0.000000   0.000000   0.000000   0.000000
    10  C   -0.000014  -0.000000  -0.000000  -0.000000  -0.000000  -0.000000
    11  C    0.000060   0.000001   0.000000   0.000000  -0.000000  -0.000000
    12  C   -0.000004   0.000000  -0.000000   0.000000  -0.000000   0.000000
    13  C   -0.000012  -0.000000   0.000000   0.000001   0.000002  -0.000000
    14  C   -0.000148  -0.000012  -0.000004   0.000060  -0.000021   0.000000
    15  C    0.000126   0.000010  -0.000006  -0.000110  -0.000295   0.000000
    16  C    0.000000   0.000000   0.000000  -0.000004  -0.000064   0.000000
    17  H   -0.000000  -0.000000  -0.000000  -0.000000  -0.000001  -0.000000
    18  H    0.000004   0.000001  -0.000035   0.000078  -0.000201  -0.000000
    19  H   -0.000494   0.000396   0.000803   0.000174   0.000072   0.000000
    20  H    0.000000   0.000000  -0.000000   0.000000   0.000000   0.000000
    21  H    0.000000  -0.000000   0.000000  -0.000000  -0.000000  -0.000000
    22  H   -0.000000   0.000000  -0.000000   0.000000   0.000000   0.000000
    23  H   -0.000021   0.000002  -0.000000  -0.000000  -0.000000  -0.000000
    24  H    0.000000  -0.000000   0.000000   0.000000   0.000019  -0.000000
    25  S    0.305902  -0.091067  -0.092252   0.301802  -0.003040   0.000112
    26  S   -0.091140   0.315555  -0.071066   0.008894   0.000021  -0.000002
    27  C   -0.000225   0.017079   0.004883   0.448872   0.416748   0.006994
    28  C   -0.000083  -0.000901  -0.050001  -0.049649  -0.037607  -0.041931
    29  C   -0.000593   0.013276  -0.029665  -0.054519   0.007014   0.411254
    30  C    0.011201  -0.087781   0.483739  -0.044969  -0.000483  -0.037934
    31  C   -0.088553   0.011593   0.000067  -0.000261   0.000000   0.000000
    32  C    0.014435  -0.000653  -0.000019   0.000003   0.000000  -0.000000
    33  C   -0.001424  -0.000003   0.000027  -0.000002  -0.000000  -0.000000
    34  C    0.017720  -0.000478  -0.000509   0.000033   0.000000   0.000000
    35  C   -0.098204  -0.088227   0.003643  -0.000065   0.000000  -0.000000
    36  C    0.386173  -0.014149   0.021084   0.003015  -0.000007   0.000000
    37  C    5.470588   0.363253  -0.014534  -0.087704  -0.000111   0.000016
    38  C    0.363253   5.463183   0.391317  -0.096262  -0.000371  -0.000470
    39  C   -0.014534   0.391317   4.967367   0.405324   0.007025   0.007529
    40  C   -0.087704  -0.096262   0.405324   5.400903  -0.043917   0.000269
    41  H   -0.000111  -0.000371   0.007025  -0.043917   0.553068  -0.000311
    42  H    0.000016  -0.000470   0.007529   0.000269  -0.000311   0.571999
    43  H    0.000102  -0.012136  -0.045736   0.008919   0.000065  -0.007650
    44  H   -0.012819  -0.000049   0.000035  -0.000136   0.000000   0.000000
    45  H   -0.000451   0.000014   0.000000  -0.000000   0.000000   0.000000
    46  H   -0.000007   0.000011  -0.000000  -0.000000   0.000000   0.000000
    47  H   -0.000317  -0.000123  -0.000009   0.000001   0.000000  -0.000000
    48  H    0.000010  -0.000001  -0.000327   0.008872  -0.007575  -0.007489
              43         44         45         46         47         48
     1  S    0.000000  -0.000044   0.000000  -0.000000   0.000000   0.000000
     2  S   -0.000000  -0.013557  -0.000017   0.000004   0.000004   0.000000
     3  C    0.000000   0.000000   0.000000  -0.000000   0.000000  -0.000000
     4  C   -0.000000  -0.000000  -0.000000   0.000000  -0.000000  -0.000001
     5  C   -0.000000  -0.000000   0.000000  -0.000000   0.000000   0.000021
     6  C    0.000000  -0.000002  -0.000000   0.000000   0.000000  -0.000001
     7  C   -0.000000  -0.000098  -0.000015   0.000000   0.000000  -0.000000
     8  C    0.000000  -0.000029   0.000002   0.000000  -0.000000   0.000000
     9  C   -0.000000  -0.000137   0.000790  -0.000002   0.000000  -0.000000
    10  C    0.000000   0.002044   0.001813  -0.000009   0.000000   0.000000
    11  C    0.000000   0.000174   0.000078   0.000000  -0.000000   0.000000
    12  C   -0.000000   0.000803  -0.000035   0.000000  -0.000000  -0.000000
    13  C    0.000000   0.000396   0.000001  -0.000000  -0.000000   0.000000
    14  C    0.000000  -0.000494   0.000004   0.000000  -0.000000  -0.000000
    15  C   -0.000000  -0.000003  -0.000000   0.000000  -0.000000   0.000000
    16  C   -0.000000   0.000003   0.000000  -0.000000  -0.000000  -0.000000
    17  H    0.000000  -0.000000   0.000000  -0.000000   0.000000  -0.000000
    18  H   -0.000000  -0.000000   0.000000  -0.000000   0.000000   0.000078
    19  H   -0.000001   0.000007  -0.000000  -0.000000  -0.000000  -0.000000
    20  H   -0.000000  -0.000001  -0.000000  -0.000000   0.000000  -0.000000
    21  H    0.000000   0.000000  -0.000000  -0.000000  -0.000000   0.000000
    22  H   -0.000000  -0.000000   0.000078  -0.000000  -0.000000  -0.000000
    23  H    0.000000   0.000072  -0.000201   0.000019  -0.000001   0.000000
    24  H   -0.000000  -0.000000  -0.000000   0.000000  -0.000000  -0.000000
    25  S   -0.000618   0.003396  -0.000001  -0.000003   0.000025  -0.000366
    26  S    0.003251  -0.000609   0.000107  -0.000371  -0.003234  -0.000003
    27  C   -0.000929  -0.000005   0.000000  -0.000000   0.000000  -0.041797
    28  C    0.007600   0.000000  -0.000000   0.000000  -0.000000   0.414399
    29  C   -0.039682  -0.000000  -0.000000   0.000000   0.000000  -0.042827
    30  C    0.419952   0.000000   0.000000   0.000000  -0.000000   0.007642
    31  C    0.000000   0.421280  -0.038098   0.007779  -0.000678   0.000000
    32  C   -0.000000  -0.040354   0.412054  -0.043282   0.007481   0.000000
    33  C    0.000000   0.007756  -0.043236   0.414136  -0.037554   0.000000
    34  C   -0.000003  -0.001085   0.007042  -0.041197   0.420082  -0.000000
    35  C   -0.000105   0.009151   0.000144   0.008978  -0.047797  -0.000000
    36  C    0.000014  -0.044246   0.007734  -0.000403   0.007374  -0.000000
    37  C    0.000102  -0.012819  -0.000451  -0.000007  -0.000317   0.000010
    38  C   -0.012136  -0.000049   0.000014   0.000011  -0.000123  -0.000001
    39  C   -0.045736   0.000035   0.000000  -0.000000  -0.000009  -0.000327
    40  C    0.008919  -0.000136  -0.000000  -0.000000   0.000001   0.008872
    41  H    0.000065   0.000000   0.000000   0.000000   0.000000  -0.007575
    42  H   -0.007650   0.000000   0.000000   0.000000  -0.000000  -0.007489
    43  H    0.571591   0.000000   0.000000   0.000000   0.000000  -0.000307
    44  H    0.000000   0.558377  -0.007498  -0.000300   0.000062   0.000000
    45  H    0.000000  -0.007498   0.566995  -0.007472  -0.000308   0.000000
    46  H    0.000000  -0.000300  -0.007472   0.571506  -0.007820  -0.000000
    47  H    0.000000   0.000062  -0.000308  -0.007820   0.565693   0.000000
    48  H   -0.000307   0.000000   0.000000  -0.000000   0.000000   0.571628
 Mulliken charges:
               1
     1  S    0.280855
     2  S    0.286198
     3  C   -0.068655
     4  C   -0.084021
     5  C   -0.118003
     6  C   -0.064796
     7  C   -0.043485
     8  C   -0.108113
     9  C   -0.084771
    10  C   -0.077110
    11  C   -0.207772
    12  C    0.011592
    13  C   -0.183845
    14  C   -0.176088
    15  C    0.030503
    16  C   -0.202771
    17  H    0.097120
    18  H    0.100477
    19  H    0.117909
    20  H    0.095674
    21  H    0.097615
    22  H    0.098044
    23  H    0.105008
    24  H    0.098434
    25  S    0.286199
    26  S    0.280853
    27  C   -0.077110
    28  C   -0.084771
    29  C   -0.108113
    30  C   -0.043485
    31  C   -0.064796
    32  C   -0.118003
    33  C   -0.084021
    34  C   -0.068654
    35  C   -0.202771
    36  C    0.030503
    37  C   -0.176087
    38  C   -0.183845
    39  C    0.011592
    40  C   -0.207773
    41  H    0.105008
    42  H    0.097615
[...]
 Alpha  occ. eigenvalues --   -0.88212  -0.84135  -0.82097  -0.77756  -0.77358
 Alpha  occ. eigenvalues --   -0.73954  -0.72123  -0.70016  -0.64604  -0.61534
 Alpha  occ. eigenvalues --   -0.59365  -0.58463  -0.56987  -0.51417  -0.50220
 Alpha  occ. eigenvalues --   -0.49097  -0.47492  -0.45651  -0.45496  -0.43992
 Alpha  occ. eigenvalues --   -0.43459  -0.43123  -0.40830  -0.40503  -0.39185
 Alpha  occ. eigenvalues --   -0.37284  -0.36629  -0.36204  -0.34755  -0.34568
 Alpha  occ. eigenvalues --   -0.34541  -0.32716  -0.28877  -0.28202  -0.24977
 Alpha  occ. eigenvalues --   -0.22873  -0.21142
 Alpha virt. eigenvalues --   -0.05634  -0.02355  -0.01598  -0.00538   0.00529
 Alpha virt. eigenvalues --    0.01814   0.04007   0.04132   0.04932   0.06274
 Alpha virt. eigenvalues --    0.07391   0.07898   0.08378   0.11281   0.12155
 Alpha virt. eigenvalues --    0.12961   0.13135   0.13213   0.14000   0.15845
 Alpha virt. eigenvalues --    0.16154   0.17706   0.19342   0.20644   0.23011
 Alpha virt. eigenvalues --    0.23155   0.24325   0.26898   0.27563   0.27686
 Alpha virt. eigenvalues --    0.28436   0.28987   0.29456   0.32878   0.34470
 Alpha virt. eigenvalues --    0.35827   0.37143   0.37441   0.38214   0.38784
 Alpha virt. eigenvalues --    0.38883   0.39778   0.40122   0.40604   0.41645
 Alpha virt. eigenvalues --    0.42095   0.42530   0.42664   0.44115   0.44468
 Alpha virt. eigenvalues --    0.44601   0.45384   0.45598   0.45806   0.45855
 Alpha virt. eigenvalues --    0.48376   0.49289   0.49469   0.50768   0.51611
 Alpha virt. eigenvalues --    0.53255   0.54814   0.56289   0.57147   0.58053
 Alpha virt. eigenvalues --    0.58699   0.59093   0.59418   0.59907   0.60359
 Alpha virt. eigenvalues --    0.60411   0.61634   0.62056   0.63624   0.63701
 Alpha virt. eigenvalues --    0.64647   0.66103   0.69589   0.70213   0.71869
 Alpha virt. eigenvalues --    0.72254   0.72781   0.73141   0.73662   0.74647
 Alpha virt. eigenvalues --    0.75797   0.76581   0.77499   0.78874   0.80150
 Alpha virt. eigenvalues --    0.80162   0.81842   0.83225   0.84213   0.84656
 Alpha virt. eigenvalues --    0.85760   0.85988   0.88325   0.88907   0.90284
 Alpha virt. eigenvalues --    0.90749   0.92271   0.93486   0.95972   0.96735
 Alpha virt. eigenvalues --    0.96752   0.98696   0.99409   1.00269   1.01682
 Alpha virt. eigenvalues --    1.02841   1.06057   1.06378   1.07540   1.08927
 Alpha virt. eigenvalues --    1.08966   1.09370   1.10726   1.11288   1.15743
 Alpha virt. eigenvalues --    1.18261   1.20258   1.21823   1.22319   1.24553
 Alpha virt. eigenvalues --    1.27961   1.28574   1.28963   1.34786   1.38700
 Alpha virt. eigenvalues --    1.40575   1.41488   1.42794   1.44201   1.44815
 Alpha virt. eigenvalues --    1.47146   1.47767   1.48942   1.52381   1.53863
 Alpha virt. eigenvalues --    1.53968   1.55929   1.56261   1.57906   1.58887
 Alpha virt. eigenvalues --    1.59642   1.60508   1.61021   1.61377   1.62167
 Alpha virt. eigenvalues --    1.63005   1.67111   1.69298   1.70367   1.71950
 Alpha virt. eigenvalues --    1.72872   1.73402   1.74565   1.75625   1.80208
 Alpha virt. eigenvalues --    1.80449   1.81565   1.82362   1.83269   1.83805
 Alpha virt. eigenvalues --    1.84229   1.86699   1.88786   1.89364   1.89440
 Alpha virt. eigenvalues --    1.89832   1.90823   1.90933   1.93661   1.93791
 Alpha virt. eigenvalues --    1.93884   1.96146   1.96192   1.98879   1.99490
 Alpha virt. eigenvalues --    2.00049   2.01111   2.02442   2.03435   2.06509
 Alpha virt. eigenvalues --    2.08045   2.10951   2.12006   2.14109   2.22431
 Alpha virt. eigenvalues --    2.25160   2.26306   2.26613   2.27653   2.32650
 Alpha virt. eigenvalues --    2.32800   2.32874   2.33279   2.34000   2.35759
 Alpha virt. eigenvalues --    2.37461   2.40468   2.47840   2.51992   2.53565
 Alpha virt. eigenvalues --    2.55488   2.56345   2.57262   2.59883   2.60227
 Alpha virt. eigenvalues --    2.61400   2.61610   2.62145   2.63709   2.64452
 Alpha virt. eigenvalues --    2.65123   2.65896   2.68911   2.68924   2.68999
 Alpha virt. eigenvalues --    2.70410   2.71688   2.73533   2.77368   2.79988
 Alpha virt. eigenvalues --    2.81351   2.81647   2.82207   2.83175   2.83583
 Alpha virt. eigenvalues --    2.87662   2.91705   2.92379   2.97020   3.03978
 Alpha virt. eigenvalues --    3.04299   3.07287   3.10371   3.15514   3.17190
 Alpha virt. eigenvalues --    3.23369   3.24266   3.29670   3.30263   3.31902
 Alpha virt. eigenvalues --    3.34398   3.38725   3.42628   3.44598   3.45777
 Alpha virt. eigenvalues --    3.50498   3.54556   3.55826   3.62654   3.75967
 Alpha virt. eigenvalues --    3.82196   3.98588   4.00437   4.01595   4.03790
 Alpha virt. eigenvalues --    4.11484   4.11840   4.19784   4.54946   4.79699
 Alpha virt. eigenvalues --    4.79826   7.81119   7.83950  17.19636  17.21067
 Alpha virt. eigenvalues --   17.43715  17.51189  17.52287  17.53379  23.35373
 Alpha virt. eigenvalues --   23.53812  23.68918  23.85655  23.85823  23.90157
 Alpha virt. eigenvalues --   23.92087  23.98132  24.01115  24.03741  24.07284
 Alpha virt. eigenvalues --   24.07407  24.14660  24.14770 188.92517 188.95387
          Condensed to atoms (all electrons):
              25         26         27         28         29         30
    25  S   15.370525   0.009509  -0.061458   0.005886  -0.000104   0.009383
    26  S    0.009509  15.370527  -0.000169  -0.000038   0.000327   0.002372
    27  C   -0.061458  -0.000169   4.861978   0.512592  -0.040616  -0.053513
    28  C    0.005886  -0.000038   0.512592   4.879632   0.492495  -0.051842
    29  C   -0.000104   0.000327  -0.040616   0.492495   4.878950   0.511515
    30  C    0.009383   0.002372  -0.053513  -0.051842   0.511515   4.875478
    31  C    0.002372   0.009383  -0.000001   0.000000  -0.000000  -0.000001
    32  C    0.000327  -0.000104   0.000000  -0.000000   0.000000  -0.000000
    33  C   -0.000038   0.005886  -0.000000   0.000000  -0.000000   0.000000
    34  C   -0.000169  -0.061458   0.000000  -0.000000   0.000000  -0.000001
    35  C    0.008663   0.306205   0.000033  -0.000002   0.000002  -0.000301
    36  C   -0.070639  -0.088261  -0.000510   0.000027  -0.000018   0.000095
    37  C    0.316752  -0.092100  -0.000489  -0.000022  -0.000613   0.011534
    38  C   -0.092100   0.316752   0.017256  -0.001042   0.013325  -0.089221
    39  C   -0.088261  -0.070639   0.006576  -0.049985  -0.029895   0.486118
    40  C    0.306206   0.008663   0.443289  -0.047947  -0.054764  -0.045307
    41  H   -0.003185   0.000023   0.419542  -0.037064   0.007347  -0.000568
    42  H    0.000110  -0.000002   0.007001  -0.041819   0.411184  -0.038060
    43  H   -0.000642   0.003289  -0.000908   0.007554  -0.039505   0.419763
    44  H    0.003289  -0.000642  -0.000003   0.000000  -0.000000   0.000000
    45  H   -0.000002   0.000110   0.000000  -0.000000  -0.000000   0.000000
    46  H   -0.000003  -0.000371  -0.000000   0.000000   0.000000   0.000000
    47  H    0.000023  -0.003185   0.000000  -0.000000   0.000000  -0.000000
    48  H   -0.000371  -0.000003  -0.041209   0.413909  -0.042678   0.007628
              31         32         33         34         35         36
    25  S    0.002372   0.000327  -0.000038  -0.000169   0.008663  -0.070639
    26  S    0.009383  -0.000104   0.005886  -0.061458   0.306205  -0.088261
    27  C   -0.000001   0.000000  -0.000000   0.000000   0.000033  -0.000510
    28  C    0.000000  -0.000000   0.000000  -0.000000  -0.000002   0.000027
    29  C   -0.000000   0.000000  -0.000000   0.000000   0.000002  -0.000018
    30  C   -0.000001  -0.000000   0.000000  -0.000001  -0.000301   0.000095
    31  C    4.875478   0.511514  -0.051842  -0.053514  -0.045306   0.486117
    32  C    0.511514   4.878950   0.492495  -0.040615  -0.054765  -0.029894
    33  C   -0.051842   0.492495   4.879633   0.512591  -0.047947  -0.049985
    34  C   -0.053514  -0.040615   0.512591   4.861979   0.443288   0.006576
    35  C   -0.045306  -0.054765  -0.047947   0.443288   5.390477   0.412308
    36  C    0.486117  -0.029894  -0.049985   0.006576   0.412308   4.949738
    37  C   -0.089221   0.013325  -0.001042   0.017256  -0.096660   0.392912
    38  C    0.011534  -0.000613  -0.000022  -0.000489  -0.086689  -0.014506
    39  C    0.000095  -0.000018   0.000027  -0.000510   0.003451   0.021082
    40  C   -0.000301   0.000002  -0.000002   0.000033  -0.000008   0.003451
    41  H   -0.000000   0.000000  -0.000000   0.000000   0.000001  -0.000009
    42  H    0.000000  -0.000000  -0.000000   0.000000  -0.000000  -0.000000
    43  H    0.000000  -0.000000   0.000000  -0.000003  -0.000107   0.000013
    44  H    0.419763  -0.039505   0.007554  -0.000908   0.008941  -0.045792
    45  H   -0.038060   0.411184  -0.041819   0.007001   0.000281   0.007544
    46  H    0.007628  -0.042678   0.413909  -0.041209   0.008882  -0.000338
    47  H   -0.000568   0.007347  -0.037064   0.419542  -0.047521   0.007228
    48  H    0.000000   0.000000   0.000000  -0.000000  -0.000000  -0.000000
              37         38         39         40         41         42
    25  S    0.316752  -0.092100  -0.088261   0.306206  -0.003185   0.000110
    26  S   -0.092100   0.316752  -0.070639   0.008663   0.000023  -0.000002
    27  C   -0.000489   0.017256   0.006576   0.443289   0.419542   0.007001
    28  C   -0.000022  -0.001042  -0.049985  -0.047947  -0.037064  -0.041819
    29  C   -0.000613   0.013325  -0.029895  -0.054764   0.007347   0.411184
    30  C    0.011534  -0.089221   0.486118  -0.045307  -0.000568  -0.038060
    31  C   -0.089221   0.011534   0.000095  -0.000301  -0.000000   0.000000
    32  C    0.013325  -0.000613  -0.000018   0.000002   0.000000  -0.000000
    33  C   -0.001042  -0.000022   0.000027  -0.000002  -0.000000  -0.000000
    34  C    0.017256  -0.000489  -0.000510   0.000033   0.000000   0.000000
    35  C   -0.096660  -0.086689   0.003451  -0.000008   0.000001  -0.000000
    36  C    0.392912  -0.014506   0.021082   0.003451  -0.000009  -0.000000
    37  C    5.458997   0.363451  -0.014506  -0.086690  -0.000118   0.000016
    38  C    0.363451   5.458995   0.392913  -0.096660  -0.000333  -0.000469
    39  C   -0.014506   0.392913   4.949737   0.412308   0.007228   0.007544
    40  C   -0.086690  -0.096660   0.412308   5.390477  -0.047521   0.000281
    41  H   -0.000118  -0.000333   0.007228  -0.047521   0.565101  -0.000321
    42  H    0.000016  -0.000469   0.007544   0.000281  -0.000321   0.571822
    43  H    0.000092  -0.012022  -0.045792   0.008941   0.000064  -0.007644
    44  H   -0.012022   0.000092   0.000013  -0.000107   0.000000   0.000000
    45  H   -0.000469   0.000016  -0.000000  -0.000000  -0.000000   0.000000
    46  H   -0.000002   0.000010  -0.000000  -0.000000   0.000000   0.000000
    47  H   -0.000333  -0.000118  -0.000009   0.000001   0.000000  -0.000000
    48  H    0.000010  -0.000002  -0.000338   0.008882  -0.007754  -0.007454
              43         44         45         46         47         48
    25  S   -0.000642   0.003289  -0.000002  -0.000003   0.000023  -0.000371
    26  S    0.003289  -0.000642   0.000110  -0.000371  -0.003185  -0.000003
    27  C   -0.000908  -0.000003   0.000000  -0.000000   0.000000  -0.041209
    28  C    0.007554   0.000000  -0.000000   0.000000  -0.000000   0.413909
    29  C   -0.039505  -0.000000  -0.000000   0.000000   0.000000  -0.042678
    30  C    0.419763   0.000000   0.000000   0.000000  -0.000000   0.007628
    31  C    0.000000   0.419763  -0.038060   0.007628  -0.000568   0.000000
    32  C   -0.000000  -0.039505   0.411184  -0.042678   0.007347   0.000000
    33  C    0.000000   0.007554  -0.041819   0.413909  -0.037064   0.000000
    34  C   -0.000003  -0.000908   0.007001  -0.041209   0.419542  -0.000000
    35  C   -0.000107   0.008941   0.000281   0.008882  -0.047521  -0.000000
    36  C    0.000013  -0.045792   0.007544  -0.000338   0.007228  -0.000000
    37  C    0.000092  -0.012022  -0.000469  -0.000002  -0.000333   0.000010
    38  C   -0.012022   0.000092   0.000016   0.000010  -0.000118  -0.000002
    39  C   -0.045792   0.000013  -0.000000  -0.000000  -0.000009  -0.000338
    40  C    0.008941  -0.000107  -0.000000  -0.000000   0.000001   0.008882
    41  H    0.000064   0.000000  -0.000000   0.000000   0.000000  -0.007754
    42  H   -0.007644   0.000000   0.000000   0.000000  -0.000000  -0.007454
    43  H    0.571387   0.000000   0.000000   0.000000   0.000000  -0.000308
    44  H    0.000000   0.571387  -0.007644  -0.000308   0.000064   0.000000
    45  H    0.000000  -0.007644   0.571822  -0.007454  -0.000321   0.000000
    46  H    0.000000  -0.000308  -0.007454   0.570655  -0.007754  -0.000000
    47  H    0.000000   0.000064  -0.000321  -0.007754   0.565101   0.000000
    48  H   -0.000308   0.000000   0.000000  -0.000000   0.000000   0.570655
 Mulliken charges:
               1
     1  S    0.000000
     2  S    0.000000
     3  C    0.000000
     4  C    0.000000
     5  C    0.000000
     6  C    0.000000
     7  C    0.000000
     8  C    0.000000
     9  C    0.000000
    10  C    0.000000
    11  C    0.000000
    12  C    0.000000
    13  C    0.000000
    14  C    0.000000
    15  C    0.000000
    16  C    0.000000
    17  H    0.000000
    18  H    0.000000
    19  H    0.000000
    20  H    0.000000
    21  H    0.000000
    22  H    0.000000
    23  H    0.000000
    24  H    0.000000
    25  S    0.283930
    26  S    0.283928
    27  C   -0.069391
    28  C   -0.082333
    29  C   -0.106952
    30  C   -0.045072
    31  C   -0.045072
    32  C   -0.106953
    33  C   -0.082333
    34  C   -0.069390
    35  C   -0.203226
    36  C    0.012862
    37  C   -0.180057
    38  C   -0.180057
    39  C    0.012863
    40  C   -0.203226
    41  H    0.097566
    42  H    0.097812
    43  H    0.095827
    44  H    0.095827
    45  H    0.097812
    46  H    0.099034
    47  H    0.097566
    48  H    0.099034
 Sum of Mulliken charges =  -0.00000
 Mulliken charges with hydrogens summed into heavy atoms:
               1
     1  S    0.000000
     2  S    0.000000
     3  C    0.000000
     4  C    0.000000
     5  C    0.000000
     6  C    0.000000
     7  C    0.000000
     8  C    0.000000
     9  C    0.000000
    10  C    0.000000
    11  C    0.000000
    12  C    0.000000
    13  C    0.000000
    14  C    0.000000
    15  C    0.000000
    16  C    0.000000
    25  S    0.283930
    26  S    0.283928
    27  C    0.028176
    28  C    0.016701
    29  C   -0.009140
    30  C    0.050755
    31  C    0.050755
    32  C   -0.009140
    33  C    0.016701
    34  C    0.028176
    35  C   -0.203226
    36  C    0.012862
    37  C   -0.180057
    38  C   -0.180057
    39  C    0.012863
    40  C   -0.203226
         Mulliken charges condensed to fragments:
      1      0.000000
      2     -0.000000
 Electronic spatial extent (au):  <R**2>=           8182.1129
 Charge=              0.0000 electrons
 Dipole moment (field-independent basis, Debye):
    X=             -0.0000    Y=              0.0000    Z=              0.0000  Tot=              0.0000
 Quadrupole moment (field-independent basis, Debye-Ang):
   XX=           -100.0139   YY=            -89.4405   ZZ=           -110.8218
   XY=             -3.0175   XZ=             -5.8296   YZ=             -1.2658
 Traceless Quadrupole moment (field-independent basis, Debye-Ang):
   XX=              0.0782   YY=             10.6516   ZZ=            -10.7298
   XY=             -3.0175   XZ=             -5.8296   YZ=             -1.2658
 Octapole moment (field-independent basis, Debye-Ang**2):
  XXX=           -860.7469  YYY=           -138.1552  ZZZ=            -81.9391  XYY=           -259.6905
  XXY=            -68.8087  XXZ=            -58.0968  XZZ=           -320.7947  YZZ=            -57.6846
  YYZ=            -23.3470  XYZ=             -7.3768
 Hexadecapole moment (field-independent basis, Debye-Ang**3):
 XXXX=          -6180.7756 YYYY=          -4178.7694 ZZZZ=           -392.7546 XXXY=           -109.1275
 XXXZ=           -193.4791 YYYX=             -1.1200 YYYZ=            -54.1729 ZZZX=            -14.2491
 ZZZY=             -8.2986 XXYY=          -1681.0877 XXZZ=          -1204.1745 YYZZ=           -906.5139
 XXYZ=              1.4587 YYXZ=            -61.8309 ZZXY=              2.4084
 N-N= 1.192162449365D+03 E-N=-5.527361777919D+03  KE= 1.331399871410D+03
 CPIOFr:  IOpCl= 0 IRwI=-1 IRwCP=  731 ICalc=  4 LCPTot=      762852 Len1MO=     1998050 IndFrg=    10753102
 CPIOFr:  IOpCl= 0 IRwI=-2 IRwCP=  731 ICalc=  0 LCPTot=      762852 Len1MO=     1998050 IndFrg=     2760902
 Counterpoise corrected energy =   -2669.805239396640
                   BSSE energy =       0.002454268353
              sum of fragments =   -2669.794630955487
           complexation energy =      -8.20 kcal/mole (raw)
           complexation energy =      -6.66 kcal/mole (corrected)
 1\1\GINC-CMDELL86\SP\RB3LYP\6-311G(d,p)\C28H16S4\OHNO\14-Jul-2021\0\\#
 b3lyp/6-311G** EmpiricalDispersion=GD3 counterpoise=2\\BTBT dimer b3ly
 p/6-311G**\\0,1\S,0,1.6203193263,0.9333401805,-0.9655543418\S,0,-1.620
 3215046,-0.9333388826,0.9655526073\C,0,0.7607010875,0.432046614,-3.596
 4890673\C,0,-0.1990145233,-0.0970811798,-4.456605144\C,0,-1.3358730484
 ,-0.7617409166,-3.9518894629\C,0,-1.5484008838,-0.8661903564,-2.581713
 2069\C,0,1.5483981093,0.866196593,2.581713372\C,0,1.3358706776,0.76174
 32744,3.9518892671\C,0,0.19901583,0.0970776341,4.4566055645\C,0,-0.760
 6973501,-0.4320550248,3.5964887592\C,0,-0.5418750743,-0.3467155574,2.2
 136722139\C,0,0.5874862401,0.3462927079,1.6917199634\C,0,0.5677107081,
 0.3035896045,0.2629304608\C,0,-0.5677107915,-0.3035871419,-0.262930279
 8\C,0,-0.5874867399,-0.3462921765,-1.6917195198\C,0,0.5418798052,0.346
 711325,-2.2136710574\H,0,1.6351619757,0.9441051055,-3.9892419249\H,0,-
 2.069015815,-1.1685664408,-4.6425298944\H,0,-2.4232632237,-1.382224776
 ,-2.1937042881\H,0,2.4232592385,1.3822352091,2.193705084\H,0,2.0690081
 682,1.1685767873,4.6425301772\H,0,0.0489377359,0.0282464127,5.53031334
 02\H,0,-1.6351576368,-0.9441151195,3.9892396112\H,0,-0.0489323111,-0.0
 282538749,-5.5303122329\S,0,-4.2296806737,0.9333401805,-0.9655543418\S
 ,0,-7.4703215046,-0.9333388826,0.9655526073\C,0,-5.0892989125,0.432046
 614,-3.5964890673\C,0,-6.0490145233,-0.0970811798,-4.456605144\C,0,-7.
 1858730484,-0.7617409166,-3.9518894629\C,0,-7.3984008838,-0.8661903564
 ,-2.5817132069\C,0,-4.3016018907,0.866196593,2.581713372\C,0,-4.514129
 3224,0.7617432744,3.9518892671\C,0,-5.65098417,0.0970776341,4.45660556
 45\C,0,-6.6106973501,-0.4320550248,3.5964887592\C,0,-6.3918750743,-0.3
 467155574,2.2136722139\C,0,-5.2625137599,0.3462927079,1.6917199634\C,0
 ,-5.2822892919,0.3035896045,0.2629304608\C,0,-6.4177107915,-0.30358714
 19,-0.2629302798\C,0,-6.4374867399,-0.3462921765,-1.6917195198\C,0,-5.
 3081201948,0.346711325,-2.2136710574\H,0,-4.2148380243,0.9441051055,-3
 .9892419249\H,0,-7.919015815,-1.1685664408,-4.6425298944\H,0,-8.273263
 2237,-1.382224776,-2.1937042881\H,0,-3.4267407615,1.3822352091,2.19370
 5084\H,0,-3.7809918318,1.1685767873,4.6425301772\H,0,-5.8010622641,0.0
 282464127,5.5303133402\H,0,-7.4851576368,-0.9441151195,3.9892396112\H,
 0,-5.8989323111,-0.0282538749,-5.5303122329\\Version=ES64L-G16RevA.03\
 State=1-A\HF=-1334.8973155\RMSD=8.542e-09\Dipole=0.0000019,0.0000072,0
 .0000054\Quadrupole=-3.003168,-13.2464339,16.249602,9.5038019,1.166259
 1,0.5551149\PG=C01 [X(C28H16S4)]\\@


 NEVER LISTEN TO CRITICISM
 OR YOU'LL BE DOIN' EVERYBODY ELSE'S THING BUT BUT YOUR OWN.

                                               -- ANDY CAPP
 Job cpu time:       0 days  2 hours 12 minutes 27.4 seconds.
 Elapsed time:       0 days  0 hours  3 minutes 21.5 seconds.
 File lengths (MBytes):  RWF=    395 Int=      0 D2E=      0 Chk=    113 Scr=      2
 Normal termination of Gaussian 16 at Wed Jul 14 11:49:30 2021.
