 Entering Gaussian System, Link 0=g16
 Initial command:
 /home/g03/g16/l1.exe "/home/scr/21098/Gau-151129.inp" -scrdir="/home/scr/21098/"
 Entering Link 1 = /home/g03/g16/l1.exe PID=    151130.
  
 Copyright (c) 1988,1990,1992,1993,1995,1998,2003,2009,2016,
            Gaussian, Inc.  All Rights Reserved.
  
 This is part of the Gaussian(R) 16 program.  It is based on
 the Gaussian(R) 09 system (copyright 2009, Gaussian, Inc.),
 the Gaussian(R) 03 system (copyright 2003, Gaussian, Inc.),
 the Gaussian(R) 98 system (copyright 1998, Gaussian, Inc.),
 the Gaussian(R) 94 system (copyright 1995, Gaussian, Inc.),
 the Gaussian 92(TM) system (copyright 1992, Gaussian, Inc.),
 the Gaussian 90(TM) system (copyright 1990, Gaussian, Inc.),
 the Gaussian 88(TM) system (copyright 1988, Gaussian, Inc.),
 the Gaussian 86(TM) system (copyright 1986, Carnegie Mellon
 University), and the Gaussian 82(TM) system (copyright 1983,
 Carnegie Mellon University). Gaussian is a federally registered
 trademark of Gaussian, Inc.
  
 This software contains proprietary and confidential information,
 including trade secrets, belonging to Gaussian, Inc.
  
 This software is provided under written license and may be
 used, copied, transmitted, or stored only in accord with that
 written license.
  
 The following legend is applicable only to US Government
 contracts under FAR:
  
                    RESTRICTED RIGHTS LEGEND
  
 Use, reproduction and disclosure by the US Government is
 subject to restrictions as set forth in subparagraphs (a)
 and (c) of the Commercial Computer Software - Restricted
 Rights clause in FAR 52.227-19.
  
 Gaussian, Inc.
 340 Quinnipiac St., Bldg. 40, Wallingford CT 06492
  
  
 ---------------------------------------------------------------
 Warning -- This program may not be used in any manner that
 competes with the business of Gaussian, Inc. or will provide
 assistance to any competitor of Gaussian, Inc.  The licensee
 of this program is prohibited from giving any competitor of
 Gaussian, Inc. access to this program.  By using this program,
 the user acknowledges that Gaussian, Inc. is engaged in the
 business of creating and licensing software in the field of
 computational chemistry and represents and warrants to the
 licensee that it is not a competitor of Gaussian, Inc. and that
 it will not use this program in any manner prohibited above.
 ---------------------------------------------------------------
  

 Cite this work as:
 Gaussian 16, Revision A.03,
 M. J. Frisch, G. W. Trucks, H. B. Schlegel, G. E. Scuseria, 
 M. A. Robb, J. R. Cheeseman, G. Scalmani, V. Barone, 
 G. A. Petersson, H. Nakatsuji, X. Li, M. Caricato, A. V. Marenich, 
 J. Bloino, B. G. Janesko, R. Gomperts, B. Mennucci, H. P. Hratchian, 
 J. V. Ortiz, A. F. Izmaylov, J. L. Sonnenberg, D. Williams-Young, 
 F. Ding, F. Lipparini, F. Egidi, J. Goings, B. Peng, A. Petrone, 
 T. Henderson, D. Ranasinghe, V. G. Zakrzewski, J. Gao, N. Rega, 
 G. Zheng, W. Liang, M. Hada, M. Ehara, K. Toyota, R. Fukuda, 
 J. Hasegawa, M. Ishida, T. Nakajima, Y. Honda, O. Kitao, H. Nakai, 
 T. Vreven, K. Throssell, J. A. Montgomery, Jr., J. E. Peralta, 
 F. Ogliaro, M. J. Bearpark, J. J. Heyd, E. N. Brothers, K. N. Kudin, 
 V. N. Staroverov, T. A. Keith, R. Kobayashi, J. Normand, 
 K. Raghavachari, A. P. Rendell, J. C. Burant, S. S. Iyengar, 
 J. Tomasi, M. Cossi, J. M. Millam, M. Klene, C. Adamo, R. Cammi, 
 J. W. Ochterski, R. L. Martin, K. Morokuma, O. Farkas, 
 J. B. Foresman, and D. J. Fox, Gaussian, Inc., Wallingford CT, 2016.
 
 ******************************************
 Gaussian 16:  ES64L-G16RevA.03 25-Dec-2016
                14-Jul-2021 
 ******************************************
 %NProcShared=40
 Will use up to   40 processors via shared memory.
 %Mem=15GB
 ------------------------------------------------------
 #b3lyp/6-311G** EmpiricalDispersion=GD3 counterpoise=2
 ------------------------------------------------------
 1/38=1,62=2,172=1/1;
 2/12=2,17=6,18=5,40=1/2;
 1/38=1,53=2,62=2,63=1/22;
 3/5=4,6=6,7=101,11=2,25=1,30=1,74=-5,124=31/1,2,3;
 4//1;
 5/5=2,38=5/2;
 6/7=2,8=2,9=2,10=2,28=1/1;
 1/53=2,62=2,63=1/22;
 3/5=7,6=11,7=101,11=2,25=1,30=1,74=-5,82=7,124=31/1,2,3;
 4//1;
 5/5=2,38=5/2;
 6/7=2,8=2,9=2,10=2,28=1/1;
 1/53=2,62=2,63=1/22(-4);
 99/5=1,9=1/99;
 -------------------------
 BTBT dimer b3lyp/6-311G**
 -------------------------
 Symbolic Z-matrix:
 Charge =  0 Multiplicity = 1 in supermolecule
 Charge =  0 Multiplicity = 1 in fragment      1.
 Charge =  0 Multiplicity = 1 in fragment      2.
 S                     1.62032   0.93334  -0.96555    
 S                    -1.62032  -0.93334   0.96555    
 C                     0.7607    0.43205  -3.59649    
 C                    -0.19901  -0.09708  -4.45661    
 C                    -1.33587  -0.76174  -3.95189    
 C                    -1.5484   -0.86619  -2.58171    
 C                     1.5484    0.8662    2.58171    
 C                     1.33587   0.76174   3.95189    
 C                     0.19902   0.09708   4.45661    
 C                    -0.7607   -0.43206   3.59649    
 C                    -0.54188  -0.34672   2.21367    
 C                     0.58749   0.34629   1.69172    
 C                     0.56771   0.30359   0.26293    
 C                    -0.56771  -0.30359  -0.26293    
 C                    -0.58749  -0.34629  -1.69172    
 C                     0.54188   0.34671  -2.21367    
 H                     1.63516   0.94411  -3.98924    
 H                    -2.06902  -1.16857  -4.64253    
 H                    -2.42326  -1.38222  -2.1937     
 H                     2.42326   1.38224   2.19371    
 H                     2.06901   1.16858   4.64253    
 H                     0.04894   0.02825   5.53031    
 H                    -1.63516  -0.94412   3.98924    
 H                    -0.04893  -0.02825  -5.53031    
 S                     1.30468   4.93834  -0.96555    
 S                     4.54532   3.07166   0.96555    
 C                     2.1643    4.43705  -3.59649    
 C                     3.12401   3.90792  -4.45661    
 C                     4.26087   3.24326  -3.95189    
 C                     4.4734    3.13881  -2.58171    
 C                     1.3766    4.8712    2.58171    
 C                     1.58913   4.76674   3.95189    
 C                     2.72598   4.10208   4.45661    
 C                     3.6857    3.57294   3.59649    
 C                     3.46688   3.65828   2.21367    
 C                     2.33751   4.35129   1.69172    
 C                     2.35729   4.30859   0.26293    
 C                     3.49271   3.70141  -0.26293    
 C                     3.51249   3.65871  -1.69172    
 C                     2.38312   4.35171  -2.21367    
 H                     1.28984   4.94911  -3.98924    
 H                     4.99402   2.83643  -4.64253    
 H                     5.34826   2.62278  -2.1937     
 H                     0.50174   5.38724   2.19371    
 H                     0.85599   5.17358   4.64253    
 H                     2.87606   4.03325   5.53031    
 H                     4.56016   3.06088   3.98924    
 H                     2.97393   3.97675  -5.53031    
 
                          Input orientation:                          
 ---------------------------------------------------------------------
 Center     Atomic      Atomic             Coordinates (Angstroms)
 Number     Number       Type             X           Y           Z
 ---------------------------------------------------------------------
      1         16           0        1.620319    0.933340   -0.965554
      2         16           0       -1.620322   -0.933339    0.965553
      3          6           0        0.760701    0.432047   -3.596489
      4          6           0       -0.199015   -0.097081   -4.456605
      5          6           0       -1.335873   -0.761741   -3.951889
      6          6           0       -1.548401   -0.866190   -2.581713
      7          6           0        1.548398    0.866197    2.581713
      8          6           0        1.335871    0.761743    3.951889
      9          6           0        0.199016    0.097078    4.456606
     10          6           0       -0.760697   -0.432055    3.596489
     11          6           0       -0.541875   -0.346716    2.213672
     12          6           0        0.587486    0.346293    1.691720
     13          6           0        0.567711    0.303590    0.262930
     14          6           0       -0.567711   -0.303587   -0.262930
     15          6           0       -0.587487   -0.346292   -1.691720
     16          6           0        0.541880    0.346711   -2.213671
     17          1           0        1.635162    0.944105   -3.989242
     18          1           0       -2.069016   -1.168566   -4.642530
     19          1           0       -2.423263   -1.382225   -2.193704
     20          1           0        2.423259    1.382235    2.193705
     21          1           0        2.069008    1.168577    4.642530
     22          1           0        0.048938    0.028246    5.530313
     23          1           0       -1.635158   -0.944115    3.989240
     24          1           0       -0.048932   -0.028254   -5.530312
     25         16           0        1.304681    4.938340   -0.965554
     26         16           0        4.545322    3.071661    0.965553
     27          6           0        2.164299    4.437047   -3.596489
     28          6           0        3.124015    3.907919   -4.456605
     29          6           0        4.260873    3.243259   -3.951889
     30          6           0        4.473401    3.138810   -2.581713
     31          6           0        1.376602    4.871197    2.581713
     32          6           0        1.589129    4.766743    3.951889
     33          6           0        2.725984    4.102078    4.456606
     34          6           0        3.685697    3.572945    3.596489
     35          6           0        3.466875    3.658284    2.213672
     36          6           0        2.337514    4.351293    1.691720
     37          6           0        2.357289    4.308590    0.262930
     38          6           0        3.492711    3.701413   -0.262930
     39          6           0        3.512487    3.658708   -1.691720
     40          6           0        2.383120    4.351711   -2.213671
     41          1           0        1.289838    4.949105   -3.989242
     42          1           0        4.994016    2.836434   -4.642530
     43          1           0        5.348263    2.622775   -2.193704
     44          1           0        0.501741    5.387235    2.193705
     45          1           0        0.855992    5.173577    4.642530
     46          1           0        2.876062    4.033246    5.530313
     47          1           0        4.560158    3.060885    3.989240
     48          1           0        2.973932    3.976746   -5.530312
 ---------------------------------------------------------------------
                    Distance matrix (angstroms):
                    1          2          3          4          5
     1  S    0.000000
     2  S    4.208969   0.000000
     3  C    2.812838   5.324075   0.000000
     4  C    4.069297   5.667383   1.393137   0.000000
     5  C    4.531067   4.928650   2.438660   1.410304   0.000000
     6  C    3.986360   3.548630   2.836748   2.434665   1.390489
     7  C    3.548632   3.986363   6.243327   7.315687   7.325105
     8  C    4.928652   4.531069   7.577436   8.590473   8.481093
     9  C    5.667385   4.069299   8.079606   8.924206   8.590474
    10  C    5.324076   2.812839   7.402719   8.079605   7.577436
    11  C    4.052297   1.750707   6.005094   6.683747   6.230315
    12  C    2.910752   2.653147   5.291740   6.214263   6.064435
    13  C    1.736014   2.609819   3.866376   4.798169   4.745868
    14  C    2.609817   1.736015   3.663120   4.214913   3.795840
    15  C    2.653146   2.910750   2.459994   2.803143   2.416826
    16  C    1.750703   4.052296   1.402623   2.403462   2.788553
    17  H    3.023743   6.218759   1.086803   2.160255   3.426128
    18  H    5.616881   5.630919   3.415181   2.163228   1.086273
    19  H    4.818792   3.290459   3.923903   3.423390   2.158387
    20  H    3.290462   4.818795   6.098632   7.300091   7.516385
    21  H    5.630921   5.616882   8.374699   9.462562   9.443696
    22  H    6.744237   4.954605   9.163416   9.990782   9.615298
    23  H    6.218758   3.023743   8.073242   8.608848   7.948859
    24  H    4.954602   6.744235   2.146405   1.086328   2.164633
    25  S    4.017419   6.838233   5.246371   6.309041   6.955692
    26  S    4.105755   7.352223   6.488693   7.870797   8.571153
    27  C    4.415166   7.998538   4.243832   5.184917   6.277333
    28  C    4.826661   8.680224   4.290307   5.204089   6.476964
    29  C    4.607217   8.730043   4.503380   5.594927   6.882121
    30  C    3.951726   8.142416   4.705367   5.984787   7.130171
    31  C    5.305584   6.729499   7.632534   8.758098   9.042979
    32  C    6.235159   7.190947   8.743792   9.877096  10.079161
    33  C    6.376771   7.512206   9.065528  10.277834  10.528922
    34  C    5.660878   7.441926   8.376143   9.665009  10.049064
    35  C    4.576305   6.965657   7.175651   8.487292   8.978706
    36  C    4.388379   6.642222   6.768455   8.001494   8.455011
    37  C    3.666689   6.617619   5.698403   6.943964   7.557275
    38  C    3.414931   7.009507   5.409736   6.756057   7.539455
    39  C    3.396357   7.381985   4.648851   5.960351   6.939404
    40  C    3.718188   7.353011   4.461861   5.611589   6.557416
    41  H    5.037685   8.223270   4.564872   5.281960   6.285660
    42  H    5.340762   9.455751   4.979581   5.967214   7.313777
    43  H    4.273185   8.437300   5.273786   6.579562   7.695703
    44  H    5.573986   6.779466   7.625438   8.648434   8.885666
    45  H    7.072087   7.546304   9.506452  10.568214  10.672222
    46  H    7.306340   8.106878  10.037027  11.236291  11.429981
    47  H    6.141586   7.955805   8.882001  10.195821  10.603640
    48  H    5.650805   9.349458   4.604667   5.274136   6.596901
                    6          7          8          9         10
     6  C    0.000000
     7  C    6.265166   0.000000
     8  C    7.325104   1.390489   0.000000
     9  C    7.315687   2.434666   1.410304   0.000000
    10  C    6.243327   2.836750   2.438660   1.393137   0.000000
    11  C    4.927339   2.444556   2.788550   2.403460   1.402622
    12  C    4.928931   1.409163   2.416825   2.803143   2.459994
    13  C    3.733405   2.579734   3.795839   4.214913   3.663121
    14  C    2.579734   3.733404   4.745867   4.798168   3.866376
    15  C    1.409162   4.928931   6.064435   6.214263   5.291739
    16  C    2.444557   4.927338   6.230314   6.683746   6.005093
    17  H    3.923440   6.571990   7.948861   8.608851   8.073244
    18  H    2.146960   8.331605   9.443696   9.462562   8.374698
    19  H    1.087302   6.605612   7.516383   7.300089   6.098630
    20  H    6.605613   1.087303   2.158387   3.423391   3.923905
    21  H    8.331604   2.146959   1.086273   2.163227   3.415181
    22  H    8.316038   3.412445   2.164633   1.086328   2.146407
    23  H    6.571988   3.923441   3.426129   2.160256   1.086802
    24  H    3.412445   8.316037   9.615296   9.990781   9.163414
    25  S    6.666680   5.406002   6.451836   7.352560   7.342967
    26  S    8.076089   4.056797   4.955250   6.318700   6.881256
    27  C    6.552727   7.162436   8.436360   9.356816   9.165298
    28  C    6.938213   7.827680   9.154161  10.125387   9.938746
    29  C    7.246559   7.462969   8.785401   9.853930   9.782746
    30  C    7.232021   6.354635   7.627746   8.778407   8.849691
    31  C    8.254346   4.008683   4.332049   5.262522   5.807090
    32  C    9.179433   4.134405   4.012999   4.898258   5.716249
    33  C    9.617275   3.920823   3.653079   4.735567   5.784039
    34  C    9.234278   3.595039   3.681148   4.997840   5.984183
    35  C    8.283694   3.407604   3.994062   5.328400   6.042800
    36  C    7.783617   3.682484   4.358500   5.506007   6.008949
    37  C    7.079884   4.228608   5.218413   6.323123   6.580894
    38  C    7.186972   4.462152   5.572999   6.790705   7.076168
    39  C    6.846852   5.469734   6.706741   7.840038   7.934708
    40  C    6.543608   5.986759   7.211015   8.207607   8.156345
    41  H    6.622265   7.740442   8.977621   9.801245   9.523911
    42  H    7.794845   8.242803   9.568198  10.643795  10.567931
    43  H    7.738695   6.350524   7.571727   8.781829   8.954201
    44  H    8.130992   4.656805   5.018183   5.761782   6.117654
    45  H    9.718518   4.824927   4.491274   5.122209   5.927141
    46  H   10.458744   4.526272   3.945421   4.879841   6.074917
    47  H    9.793561   3.983526   3.960237   5.293594   6.377020
    48  H    7.252570   8.804125  10.145523  11.067543  10.802013
                   11         12         13         14         15
    11  C    0.000000
    12  C    1.424132   0.000000
    13  C    2.336551   1.429564   0.000000
    14  C    2.477113   2.361669   1.390818   0.000000
    15  C    3.905658   3.647999   2.361670   1.429564   0.000000
    16  C    4.610503   3.905657   2.477112   2.336551   1.424133
    17  H    6.699392   5.807610   4.430653   4.504973   3.447304
    18  H    7.072136   7.033813   5.760478   4.709883   3.402697
    19  H    4.902741   5.210461   4.221724   2.886940   2.166846
    20  H    3.432447   2.166848   2.886941   4.221724   5.210463
    21  H    3.874555   3.402696   4.709882   5.760477   7.033812
    22  H    3.389656   3.889214   5.300025   5.835413   7.259688
    23  H    2.169053   3.447303   4.504972   4.430651   5.807607
    24  H    7.766190   7.259688   5.835412   5.300024   3.889214
    25  S    6.438095   5.353725   4.851104   5.610466   5.659943
    26  S    6.254812   4.859981   4.896661   6.248565   6.714851
    27  C    7.997858   6.869189   5.876196   6.407035   5.837876
    28  C    8.719705   7.544605   6.465284   6.996608   6.286346
    29  C    8.600492   7.330519   6.328176   7.035891   6.442037
    30  C    7.765153   6.415662   5.602222   6.529905   6.208914
    31  C    5.571590   4.678627   5.185951   6.216972   7.024390
    32  C    5.806035   5.064784   5.879749   6.937212   7.920297
    33  C    5.958306   5.130661   6.055870   7.247919   8.280639
    34  C    5.928599   4.861928   5.614547   6.929221   7.847654
    35  C    5.666578   4.419571   4.844019   6.173157   6.908442
    36  C    5.534853   4.370655   4.643010   5.824851   6.486185
    37  C    5.820860   4.568746   4.386641   5.486741   5.844680
    38  C    6.228867   4.849517   4.514129   5.703249   5.922277
    39  C    6.908933   5.565553   4.873313   5.864233   5.731475
    40  C    7.087466   5.875352   5.081000   5.846760   5.582847
    41  H    8.359248   7.345237   6.339026   6.702735   6.069942
    42  H    9.369420   8.108084   7.076088   7.744251   7.070375
    43  H    7.933257   6.553159   5.853833   6.876789   6.655860
    44  H    5.828184   5.066601   5.438354   6.290011   7.011154
    45  H    6.190881   5.664102   6.555972   7.489312   8.524981
    46  H    6.470431   5.793618   6.854498   8.014323   9.128762
    47  H    6.387106   5.331953   6.117817   7.462952   8.389302
    48  H    9.540572   8.428112   7.269363   7.655704   6.790225
                   16         17         18         19         20
    16  C    0.000000
    17  H    2.169054   0.000000
    18  H    3.874558   4.314058   0.000000
    19  H    3.432447   5.010647   2.483523   0.000000
    20  H    4.902740   6.248351   8.568619   7.097914   0.000000
    21  H    7.072134   8.645583  10.430619   8.568617   2.483523
    22  H    7.766190   9.694165  10.459676   8.231747   4.313194
    23  H    6.699390   8.827034   8.645580   6.248347   5.010648
    24  H    3.389656   2.481240   2.483789   4.313193   8.231747
    25  S    4.818995   5.020540   7.886462   7.440125   4.886514
    26  S    5.793130   6.127439   9.652957   8.853201   2.977527
    27  C    4.612513   3.554558   7.101975   7.541714   6.551739
    28  C    4.937648   3.349523   7.264491   7.992411   7.148200
    29  C    5.024172   3.490253   7.746527   8.316489   6.678964
    30  C    4.836127   3.854019   8.099609   8.255560   5.485732
    31  C    6.645558   7.659396  10.026999   8.737784   3.663181
    32  C    7.658169   8.813413  11.066796   9.574833   3.904085
    33  C    7.960256   9.082677  11.557075  10.040864   3.551043
    34  C    7.351879   8.286061  11.112159   9.767264   2.891498
    35  C    6.254877   7.014135  10.047491   8.917703   2.503983
    36  C    5.874781   6.661498   9.487311   8.404448   3.012415
    37  C    5.012559   5.470118   8.582247   7.827778   3.506536
    38  C    4.875122   4.993859   8.592461   8.035547   3.543638
    39  C    4.479538   4.021446   7.947517   7.803596   4.633063
    40  C    4.407969   3.914572   7.496288   7.481961   5.314543
    41  H    4.989401   4.019860   7.009607   7.556243   7.227450
    42  H    5.649742   3.910191   8.119510   8.877491   7.446985
    43  H    5.318100   4.452978   8.682571   8.742806   5.417006
    44  H    6.695779   7.697719   9.814348   8.580827   4.442101
    45  H    8.390756   9.643808  11.618554  10.023280   4.777797
    46  H    8.888658  10.084868  12.449875  10.819918   4.285539
    47  H    7.873334   8.757427  11.676542  10.331417   3.257015
    48  H    5.485630   3.655696   7.259044   8.305495   8.166711
                   21         22         23         24         25
    21  H    0.000000
    22  H    2.483787   0.000000
    23  H    4.314058   2.481244   0.000000
    24  H   10.459675  11.061203   9.694162   0.000000
    25  S    6.800436   8.239066   8.233827   6.880141   0.000000
    26  S    4.824316   7.093439   7.966647   8.538905   4.208969
    27  C    8.864165  10.354265  10.046694   5.345743   2.812838
    28  C    9.560926  11.146591  10.840860   5.168549   4.069297
    29  C    9.108931  10.862268  10.740522   5.636367   4.531067
    30  C    7.864643   9.749690   9.857088   6.259075   3.986360
    31  C    4.293691   5.823324   6.698483   9.583409   3.548632
    32  C    3.695141   5.226563   6.558302  10.751158   4.928652
    33  C    3.011912   4.991546   6.685959  11.157882   5.667385
    34  C    3.080401   5.434205   6.990678  10.498314   5.324076
    35  C    3.748603   5.988287   7.096863   9.269345   4.052297
    36  C    4.348455   6.217806   7.007286   8.776862   2.910752
    37  C    5.396636   7.169041   7.577329   7.626256   1.736014
    38  C    5.701380   7.675506   8.121386   7.361994   2.609817
    39  C    6.957521   8.793985   8.941897   6.404076   2.653146
    40  C    7.565613   9.171153   9.092218   6.008251   1.750703
    41  H    9.455527  10.787799  10.341267   5.379712   3.023743
    42  H    9.876728  11.654461  11.521542   5.867360   5.616881
    43  H    7.720253   9.719819   9.985974   6.876818   4.818792
    44  H    5.123490   6.329040   6.919268   9.449402   3.290462
    45  H    4.184666   5.283363   6.637678  11.461442   5.630921
    46  H    3.105773   4.902312   6.892035  12.140380   6.744237
    47  H    3.195848   5.650036   7.377124  11.018546   6.218758
    48  H   10.592045  12.103044  11.665353   5.017742   4.954602
                   26         27         28         29         30
    26  S    0.000000
    27  C    5.324075   0.000000
    28  C    5.667383   1.393137   0.000000
    29  C    4.928650   2.438660   1.410304   0.000000
    30  C    3.548630   2.836748   2.434665   1.390489   0.000000
    31  C    3.986363   6.243327   7.315687   7.325105   6.265166
    32  C    4.531069   7.577436   8.590473   8.481093   7.325104
    33  C    4.069299   8.079606   8.924206   8.590474   7.315687
    34  C    2.812839   7.402719   8.079605   7.577436   6.243327
    35  C    1.750707   6.005094   6.683747   6.230315   4.927339
    36  C    2.653147   5.291740   6.214263   6.064435   4.928931
    37  C    2.609819   3.866376   4.798169   4.745868   3.733405
    38  C    1.736015   3.663120   4.214913   3.795840   2.579734
    39  C    2.910750   2.459994   2.803143   2.416826   1.409162
    40  C    4.052296   1.402623   2.403462   2.788553   2.444557
    41  H    6.218759   1.086803   2.160255   3.426128   3.923440
    42  H    5.630919   3.415181   2.163228   1.086273   2.146960
    43  H    3.290459   3.923903   3.423390   2.158387   1.087302
    44  H    4.818795   6.098632   7.300091   7.516385   6.605613
    45  H    5.616882   8.374699   9.462562   9.443696   8.331604
    46  H    4.954605   9.163416   9.990782   9.615298   8.316038
    47  H    3.023743   8.073242   8.608848   7.948859   6.571988
    48  H    6.744235   2.146405   1.086328   2.164633   3.412445
                   31         32         33         34         35
    31  C    0.000000
    32  C    1.390489   0.000000
    33  C    2.434666   1.410304   0.000000
    34  C    2.836750   2.438660   1.393137   0.000000
    35  C    2.444556   2.788550   2.403460   1.402622   0.000000
    36  C    1.409163   2.416825   2.803143   2.459994   1.424132
    37  C    2.579734   3.795839   4.214913   3.663121   2.336551
    38  C    3.733404   4.745867   4.798168   3.866376   2.477113
    39  C    4.928931   6.064435   6.214263   5.291739   3.905658
    40  C    4.927338   6.230314   6.683746   6.005093   4.610503
    41  H    6.571990   7.948861   8.608851   8.073244   6.699392
    42  H    8.331605   9.443696   9.462562   8.374698   7.072136
    43  H    6.605612   7.516383   7.300089   6.098630   4.902741
    44  H    1.087303   2.158387   3.423391   3.923905   3.432447
    45  H    2.146959   1.086273   2.163227   3.415181   3.874555
    46  H    3.412445   2.164633   1.086328   2.146407   3.389656
    47  H    3.923441   3.426129   2.160256   1.086802   2.169053
    48  H    8.316037   9.615296   9.990781   9.163414   7.766190
                   36         37         38         39         40
    36  C    0.000000
    37  C    1.429564   0.000000
    38  C    2.361669   1.390818   0.000000
    39  C    3.647999   2.361670   1.429564   0.000000
    40  C    3.905657   2.477112   2.336551   1.424133   0.000000
    41  H    5.807610   4.430653   4.504973   3.447304   2.169054
    42  H    7.033813   5.760478   4.709883   3.402697   3.874558
    43  H    5.210461   4.221724   2.886940   2.166846   3.432447
    44  H    2.166848   2.886941   4.221724   5.210463   4.902740
    45  H    3.402696   4.709882   5.760477   7.033812   7.072134
    46  H    3.889214   5.300025   5.835413   7.259688   7.766190
    47  H    3.447303   4.504972   4.430651   5.807607   6.699390
    48  H    7.259688   5.835412   5.300024   3.889214   3.389656
                   41         42         43         44         45
    41  H    0.000000
    42  H    4.314058   0.000000
    43  H    5.010647   2.483523   0.000000
    44  H    6.248351   8.568619   7.097914   0.000000
    45  H    8.645583  10.430619   8.568617   2.483523   0.000000
    46  H    9.694165  10.459676   8.231747   4.313194   2.483787
    47  H    8.827034   8.645580   6.248347   5.010648   4.314058
    48  H    2.481240   2.483789   4.313193   8.231747  10.459675
                   46         47         48
    46  H    0.000000
    47  H    2.481244   0.000000
    48  H   11.061203   9.694162   0.000000
 Stoichiometry    C28H16S4
 Framework group  C1[X(C28H16S4)]
 Deg. of freedom   138
 Full point group                 C1      NOp   1
 Largest Abelian subgroup         C1      NOp   1
 Largest concise Abelian subgroup C1      NOp   1
                         Standard orientation:                         
 ---------------------------------------------------------------------
 Center     Atomic      Atomic             Coordinates (Angstroms)
 Number     Number       Type             X           Y           Z
 ---------------------------------------------------------------------
      1         16           0        1.151392    0.381216   -0.793268
      2         16           0        0.336014    4.333673    0.401996
      3          6           0        3.935073    0.494333   -0.405477
      4          6           0        5.053966    1.219682   -0.002019
      5          6           0        4.935079    2.561661    0.415014
      6          6           0        3.690978    3.179730    0.475545
      7          6           0       -2.203574    1.535156   -0.866813
      8          6           0       -3.447674    2.153228   -0.806285
      9          6           0       -3.566560    3.495209   -0.389258
     10          6           0       -2.447666    4.220560    0.014194
     11          6           0       -1.188008    3.608506   -0.063259
     12          6           0       -1.058196    2.245689   -0.455729
     13          6           0        0.318651    1.861632   -0.434584
     14          6           0        1.168754    2.853255    0.043312
     15          6           0        2.545601    2.469200    0.064455
     16          6           0        2.675413    1.106384   -0.328022
     17          1           0        4.030646   -0.539840   -0.725621
     18          1           0        5.822489    3.107608    0.722316
     19          1           0        3.600963    4.215597    0.793516
     20          1           0       -2.113560    0.499288   -1.184780
     21          1           0       -4.335086    1.607279   -1.113578
     22          1           0       -4.547543    3.959856   -0.345828
     23          1           0       -2.543237    5.254733    0.334337
     24          1           0        6.034948    0.755035   -0.045455
     25         16           0        0.239792   -2.300986    2.055316
     26         16           0       -1.727197   -2.413906   -1.664042
     27          6           0        2.717994   -3.266258    1.139445
     28          6           0        3.495838   -3.744870    0.087438
     29          6           0        2.972951   -3.829078   -1.219642
     30          6           0        1.653325   -3.477624   -1.481422
     31          6           0       -3.140733   -1.237271    1.872698
     32          6           0       -4.460358   -0.885814    1.610916
     33          6           0       -4.983243   -0.970015    0.303835
     34          6           0       -4.205397   -1.448623   -0.748174
     35          6           0       -2.867977   -1.786165   -0.493770
     36          6           0       -2.336829   -1.732199    0.826503
     37          6           0       -0.967010   -2.141065    0.817657
     38          6           0       -0.520396   -2.573826   -0.426381
     39          6           0        0.849423   -2.982690   -0.435229
     40          6           0        1.380572   -2.928718    0.885045
     41          1           0        3.124320   -3.203422    2.145473
     42          1           0        3.599828   -4.202857   -2.024194
     43          1           0        1.252414   -3.539271   -2.490231
     44          1           0       -2.739824   -1.175628    2.881509
     45          1           0       -5.087238   -0.512044    2.415469
     46          1           0       -6.017558   -0.693641    0.119663
     47          1           0       -4.611721   -1.511458   -1.754202
     48          1           0        4.530154   -4.021239    0.271610
 ---------------------------------------------------------------------
 Rotational constants (GHZ):           0.1333163           0.1274214           0.0746020
 Counterpoise: doing full-system calculation.
 Standard basis: 6-311G(d,p) (5D, 7F)
 There are   736 symmetry adapted cartesian basis functions of A   symmetry.
 There are   704 symmetry adapted basis functions of A   symmetry.
   704 basis functions,  1208 primitive gaussians,   736 cartesian basis functions
   124 alpha electrons      124 beta electrons
       nuclear repulsion energy      3752.8073022777 Hartrees.
 NAtoms=   48 NActive=   48 NUniq=   48 SFac= 1.00D+00 NAtFMM=   60 NAOKFM=F Big=F
 Integral buffers will be    131072 words long.
 Raffenetti 2 integral format.
 Two-electron integral symmetry is turned on.
 Nuclear repulsion after empirical dispersion term =     3752.7457448190 Hartrees.
 One-electron integrals computed using PRISM.
 NBasis=   704 RedAO= T EigKep=  1.61D-04  NBF=   704
 NBsUse=   704 1.00D-06 EigRej= -1.00D+00 NBFU=   704
 ExpMin= 7.71D-02 ExpMax= 9.34D+04 ExpMxC= 3.17D+03 IAcc=3 IRadAn=         5 AccDes= 0.00D+00
 Harris functional with IExCor=  402 and IRadAn=       5 diagonalized for initial guess.
 HarFok:  IExCor=  402 AccDes= 0.00D+00 IRadAn=         5 IDoV= 1 UseB2=F ITyADJ=14
 ICtDFT=  3500011 ScaDFX=  1.000000  1.000000  1.000000  1.000000
 FoFCou: FMM=F IPFlag=           0 FMFlag=      100000 FMFlg1=           0
         NFxFlg=           0 DoJE=T BraDBF=F KetDBF=T FulRan=T
         wScrn=  0.000000 ICntrl=       500 IOpCl=  0 I1Cent=   200000004 NGrid=           0
         NMat0=    1 NMatS0=      1 NMatT0=    0 NMatD0=    1 NMtDS0=    0 NMtDT0=    0
 Petite list used in FoFCou.
 Requested convergence on RMS density matrix=1.00D-08 within 128 cycles.
 Requested convergence on MAX density matrix=1.00D-06.
 Requested convergence on             energy=1.00D-06.
 No special actions if energy rises.
 Integral accuracy reduced to 1.0D-05 until final iterations.
 Initial convergence to 1.0D-05 achieved.  Increase integral accuracy.
 SCF Done:  E(RB3LYP) =  -2669.81038772     A.U. after   15 cycles
            NFock= 15  Conv=0.75D-08     -V/T= 2.0026

 **********************************************************************

            Population analysis using the SCF density.

 **********************************************************************

 Orbital symmetries:
       Occupied  (A) (A) (A) (A) (A) (A) (A) (A) (A) (A) (A) (A)
                 (A) (A) (A) (A) (A) (A) (A) (A) (A) (A) (A) (A)
                 (A) (A) (A) (A) (A) (A) (A) (A) (A) (A) (A) (A)
                 (A) (A) (A) (A) (A) (A) (A) (A) (A) (A) (A) (A)
                 (A) (A) (A) (A) (A) (A) (A) (A) (A) (A) (A) (A)
                 (A) (A) (A) (A) (A) (A) (A) (A) (A) (A) (A) (A)
                 (A) (A) (A) (A) (A) (A) (A) (A) (A) (A) (A) (A)
                 (A) (A) (A) (A) (A) (A) (A) (A) (A) (A) (A) (A)
                 (A) (A) (A) (A) (A) (A) (A) (A) (A) (A) (A) (A)
                 (A) (A) (A) (A) (A) (A) (A) (A) (A) (A) (A) (A)
                 (A) (A) (A) (A)
       Virtual   (A) (A) (A) (A) (A) (A) (A) (A) (A) (A) (A) (A)
                 (A) (A) (A) (A) (A) (A) (A) (A) (A) (A) (A) (A)
                 (A) (A) (A) (A) (A) (A) (A) (A) (A) (A) (A) (A)
                 (A) (A) (A) (A) (A) (A) (A) (A) (A) (A) (A) (A)
                 (A) (A) (A) (A) (A) (A) (A) (A) (A) (A) (A) (A)
                 (A) (A) (A) (A) (A) (A) (A) (A) (A) (A) (A) (A)
                 (A) (A) (A) (A) (A) (A) (A) (A) (A) (A) (A) (A)
                 (A) (A) (A) (A) (A) (A) (A) (A) (A) (A) (A) (A)
                 (A) (A) (A) (A) (A) (A) (A) (A) (A) (A) (A) (A)
                 (A) (A) (A) (A) (A) (A) (A) (A) (A) (A) (A) (A)
                 (A) (A) (A) (A) (A) (A) (A) (A) (A) (A) (A) (A)
                 (A) (A) (A) (A) (A) (A) (A) (A) (A) (A) (A) (A)
                 (A) (A) (A) (A) (A) (A) (A) (A) (A) (A) (A) (A)
                 (A) (A) (A) (A) (A) (A) (A) (A) (A) (A) (A) (A)
                 (A) (A) (A) (A) (A) (A) (A) (A) (A) (A) (A) (A)
                 (A) (A) (A) (A) (A) (A) (A) (A) (A) (A) (A) (A)
                 (A) (A) (A) (A) (A) (A) (A) (A) (A) (A) (A) (A)
                 (A) (A) (A) (A) (A) (A) (A) (A) (A) (A) (A) (A)
                 (A) (A) (A) (A) (A) (A) (A) (A) (A) (A) (A) (A)
                 (A) (A) (A) (A) (A) (A) (A) (A) (A) (A) (A) (A)
                 (A) (A) (A) (A) (A) (A) (A) (A) (A) (A) (A) (A)
                 (A) (A) (A) (A) (A) (A) (A) (A) (A) (A) (A) (A)
                 (A) (A) (A) (A) (A) (A) (A) (A) (A) (A) (A) (A)
                 (A) (A) (A) (A) (A) (A) (A) (A) (A) (A) (A) (A)
                 (A) (A) (A) (A) (A) (A) (A) (A) (A) (A) (A) (A)
                 (A) (A) (A) (A) (A) (A) (A) (A) (A) (A) (A) (A)
                 (A) (A) (A) (A) (A) (A) (A) (A) (A) (A) (A) (A)
                 (A) (A) (A) (A) (A) (A) (A) (A) (A) (A) (A) (A)
                 (A) (A) (A) (A) (A) (A) (A) (A) (A) (A) (A) (A)
                 (A) (A) (A) (A) (A) (A) (A) (A) (A) (A) (A) (A)
                 (A) (A) (A) (A) (A) (A) (A) (A) (A) (A) (A) (A)
                 (A) (A) (A) (A) (A) (A) (A) (A) (A) (A) (A) (A)
                 (A) (A) (A) (A) (A) (A) (A) (A) (A) (A) (A) (A)
                 (A) (A) (A) (A) (A) (A) (A) (A) (A) (A) (A) (A)
                 (A) (A) (A) (A) (A) (A) (A) (A) (A) (A) (A) (A)
                 (A) (A) (A) (A) (A) (A) (A) (A) (A) (A) (A) (A)
                 (A) (A) (A) (A) (A) (A) (A) (A) (A) (A) (A) (A)
                 (A) (A) (A) (A) (A) (A) (A) (A) (A) (A) (A) (A)
                 (A) (A) (A) (A) (A) (A) (A) (A) (A) (A) (A) (A)
                 (A) (A) (A) (A) (A) (A) (A) (A) (A) (A) (A) (A)
                 (A) (A) (A) (A) (A) (A) (A) (A) (A) (A) (A) (A)
                 (A) (A) (A) (A) (A) (A) (A) (A) (A) (A) (A) (A)
                 (A) (A) (A) (A) (A) (A) (A) (A) (A) (A) (A) (A)
                 (A) (A) (A) (A) (A) (A) (A) (A) (A) (A) (A) (A)
                 (A) (A) (A) (A) (A) (A) (A) (A) (A) (A) (A) (A)
                 (A) (A) (A) (A) (A) (A) (A) (A) (A) (A) (A) (A)
                 (A) (A) (A) (A) (A) (A) (A) (A) (A) (A) (A) (A)
                 (A) (A) (A) (A) (A) (A) (A) (A) (A) (A) (A) (A)
                 (A) (A) (A) (A)
 The electronic state is 1-A.
 Alpha  occ. eigenvalues --  -88.88544 -88.88311 -88.87418 -88.87135 -10.22136
 Alpha  occ. eigenvalues --  -10.22062 -10.21613 -10.21552 -10.21056 -10.20983
 Alpha  occ. eigenvalues --  -10.20522 -10.20458 -10.20386 -10.20338 -10.19410
 Alpha  occ. eigenvalues --  -10.19337 -10.19322 -10.19237 -10.19072 -10.19020
 Alpha  occ. eigenvalues --  -10.18798 -10.18781 -10.18641 -10.18577 -10.18336
 Alpha  occ. eigenvalues --  -10.18259 -10.18091 -10.17772 -10.17737 -10.17720
 Alpha  occ. eigenvalues --  -10.17667 -10.17439  -7.97195  -7.96955  -7.96076
 Alpha  occ. eigenvalues --   -7.95793  -5.93522  -5.93286  -5.93163  -5.92925
 Alpha  occ. eigenvalues --   -5.92694  -5.92453  -5.92405  -5.92121  -5.92047
 Alpha  occ. eigenvalues --   -5.91759  -5.91575  -5.91290  -0.92638  -0.91529
 Alpha  occ. eigenvalues --   -0.88567  -0.87462  -0.84481  -0.83408  -0.82409
 Alpha  occ. eigenvalues --   -0.81329  -0.78095  -0.77688  -0.77030  -0.76600
 Alpha  occ. eigenvalues --   -0.74272  -0.73200  -0.72460  -0.71401  -0.70324
 Alpha  occ. eigenvalues --   -0.69254  -0.64934  -0.63882  -0.61845  -0.60794
 Alpha  occ. eigenvalues --   -0.59686  -0.58780  -0.58635  -0.57735  -0.57293
 Alpha  occ. eigenvalues --   -0.56237  -0.51740  -0.50730  -0.50527  -0.49489
 Alpha  occ. eigenvalues --   -0.49403  -0.48370  -0.47809  -0.46931  -0.45958
 Alpha  occ. eigenvalues --   -0.45800  -0.45063  -0.44801  -0.44296  -0.43849
 Alpha  occ. eigenvalues --   -0.43671  -0.43143  -0.42595  -0.42319  -0.41148
 Alpha  occ. eigenvalues --   -0.40791  -0.40109  -0.39861  -0.39436  -0.38402
 Alpha  occ. eigenvalues --   -0.37601  -0.36951  -0.36587  -0.36497  -0.35909
 Alpha  occ. eigenvalues --   -0.35495  -0.35056  -0.34942  -0.34816  -0.34053
 Alpha  occ. eigenvalues --   -0.33857  -0.33708  -0.32800  -0.31845  -0.29165
 Alpha  occ. eigenvalues --   -0.28493  -0.28091  -0.27482  -0.25312  -0.24210
 Alpha  occ. eigenvalues --   -0.23246  -0.22164  -0.21438  -0.20371
 Alpha virt. eigenvalues --   -0.06035  -0.04909  -0.02757  -0.02027  -0.01614
 Alpha virt. eigenvalues --   -0.00901  -0.00782  -0.00016   0.00483   0.01216
 Alpha virt. eigenvalues --    0.01519   0.02652   0.03671   0.03822   0.04264
 Alpha virt. eigenvalues --    0.04752   0.04912   0.05524   0.06464   0.06989
 Alpha virt. eigenvalues --    0.07190   0.07544   0.07854   0.08875   0.09221
 Alpha virt. eigenvalues --    0.10428   0.10980   0.11914   0.12507   0.12630
 Alpha virt. eigenvalues --    0.12718   0.13068   0.13173   0.13410   0.13895
 Alpha virt. eigenvalues --    0.14153   0.14575   0.14978   0.15667   0.16007
 Alpha virt. eigenvalues --    0.16702   0.17266   0.18035   0.18827   0.19975
 Alpha virt. eigenvalues --    0.20915   0.21223   0.21727   0.22855   0.23008
 Alpha virt. eigenvalues --    0.23566   0.24246   0.24394   0.25180   0.26799
 Alpha virt. eigenvalues --    0.27292   0.27371   0.27796   0.28095   0.28206
 Alpha virt. eigenvalues --    0.28549   0.28980   0.29164   0.29383   0.29976
 Alpha virt. eigenvalues --    0.31817   0.32339   0.33660   0.33886   0.34856
 Alpha virt. eigenvalues --    0.35078   0.35308   0.36151   0.36627   0.36904
 Alpha virt. eigenvalues --    0.37930   0.37978   0.38191   0.38602   0.38990
 Alpha virt. eigenvalues --    0.39532   0.39938   0.40221   0.40592   0.40818
 Alpha virt. eigenvalues --    0.41096   0.41246   0.41573   0.41833   0.42110
 Alpha virt. eigenvalues --    0.42294   0.42833   0.43120   0.43306   0.43597
 Alpha virt. eigenvalues --    0.43756   0.44103   0.44332   0.44623   0.45065
 Alpha virt. eigenvalues --    0.45720   0.46017   0.46228   0.46336   0.46487
 Alpha virt. eigenvalues --    0.47282   0.48412   0.48698   0.48858   0.49318
 Alpha virt. eigenvalues --    0.49586   0.50631   0.50818   0.51017   0.51518
 Alpha virt. eigenvalues --    0.52432   0.52877   0.53753   0.53846   0.54241
 Alpha virt. eigenvalues --    0.55257   0.55558   0.56065   0.56735   0.57166
 Alpha virt. eigenvalues --    0.57886   0.58089   0.58178   0.58733   0.58971
 Alpha virt. eigenvalues --    0.59040   0.59470   0.59807   0.59855   0.60084
 Alpha virt. eigenvalues --    0.60823   0.60855   0.61283   0.61406   0.61857
 Alpha virt. eigenvalues --    0.62465   0.62642   0.63114   0.63538   0.64151
 Alpha virt. eigenvalues --    0.64612   0.65512   0.66424   0.67173   0.67639
 Alpha virt. eigenvalues --    0.68488   0.69465   0.69681   0.70121   0.70693
 Alpha virt. eigenvalues --    0.71146   0.71607   0.71807   0.72209   0.72456
 Alpha virt. eigenvalues --    0.72950   0.73291   0.73534   0.74309   0.74815
 Alpha virt. eigenvalues --    0.75213   0.75501   0.76047   0.76513   0.77283
 Alpha virt. eigenvalues --    0.77624   0.77783   0.78263   0.78739   0.79255
 Alpha virt. eigenvalues --    0.79877   0.79985   0.80832   0.80990   0.81420
 Alpha virt. eigenvalues --    0.82157   0.82253   0.83043   0.83788   0.84039
 Alpha virt. eigenvalues --    0.84479   0.84834   0.85952   0.86194   0.86979
 Alpha virt. eigenvalues --    0.87248   0.87412   0.87951   0.88738   0.89158
 Alpha virt. eigenvalues --    0.89840   0.90221   0.90772   0.91156   0.91813
 Alpha virt. eigenvalues --    0.92699   0.93509   0.93594   0.94425   0.94754
 Alpha virt. eigenvalues --    0.95824   0.96529   0.97296   0.97388   0.98383
 Alpha virt. eigenvalues --    0.98755   0.99176   0.99503   0.99711   1.00301
 Alpha virt. eigenvalues --    1.00679   1.00976   1.01821   1.02663   1.03292
 Alpha virt. eigenvalues --    1.04166   1.04529   1.05972   1.06908   1.07112
 Alpha virt. eigenvalues --    1.07610   1.08072   1.08499   1.09332   1.09574
 Alpha virt. eigenvalues --    1.09859   1.10169   1.10888   1.11056   1.11316
 Alpha virt. eigenvalues --    1.11684   1.11953   1.13680   1.15854   1.17406
 Alpha virt. eigenvalues --    1.18796   1.19947   1.20872   1.21544   1.21991
 Alpha virt. eigenvalues --    1.22939   1.23678   1.24782   1.25120   1.26385
 Alpha virt. eigenvalues --    1.28143   1.28615   1.29363   1.29555   1.30741
 Alpha virt. eigenvalues --    1.32288   1.34787   1.36023   1.38647   1.40359
 Alpha virt. eigenvalues --    1.41068   1.41515   1.41583   1.42976   1.43414
 Alpha virt. eigenvalues --    1.43852   1.44292   1.44850   1.45799   1.46653
 Alpha virt. eigenvalues --    1.47502   1.48414   1.48800   1.49157   1.49619
 Alpha virt. eigenvalues --    1.51036   1.52734   1.53388   1.53567   1.54151
 Alpha virt. eigenvalues --    1.54783   1.55867   1.56046   1.56674   1.57048
 Alpha virt. eigenvalues --    1.58407   1.58583   1.59306   1.59651   1.59869
 Alpha virt. eigenvalues --    1.60887   1.61031   1.61241   1.61429   1.61823
 Alpha virt. eigenvalues --    1.62468   1.62590   1.63033   1.63682   1.64216
 Alpha virt. eigenvalues --    1.65072   1.66469   1.67961   1.68564   1.69638
 Alpha virt. eigenvalues --    1.70349   1.70574   1.72127   1.72404   1.73169
 Alpha virt. eigenvalues --    1.73629   1.73699   1.74057   1.74589   1.75795
 Alpha virt. eigenvalues --    1.75900   1.76508   1.77160   1.80348   1.80648
 Alpha virt. eigenvalues --    1.81217   1.81558   1.82173   1.82533   1.82862
 Alpha virt. eigenvalues --    1.83116   1.83437   1.84253   1.84452   1.85494
 Alpha virt. eigenvalues --    1.86235   1.86514   1.87193   1.88304   1.88913
 Alpha virt. eigenvalues --    1.89405   1.89517   1.90011   1.90247   1.90426
 Alpha virt. eigenvalues --    1.90491   1.91180   1.91445   1.92136   1.92740
 Alpha virt. eigenvalues --    1.92927   1.93702   1.94393   1.94448   1.95140
 Alpha virt. eigenvalues --    1.95550   1.96040   1.96260   1.97372   1.98015
 Alpha virt. eigenvalues --    1.98311   1.99296   1.99966   2.00453   2.00749
 Alpha virt. eigenvalues --    2.01419   2.02191   2.02332   2.03240   2.03488
 Alpha virt. eigenvalues --    2.05123   2.05175   2.06062   2.07318   2.08165
 Alpha virt. eigenvalues --    2.08256   2.09685   2.10957   2.12344   2.13186
 Alpha virt. eigenvalues --    2.13743   2.14786   2.16995   2.23064   2.23556
 Alpha virt. eigenvalues --    2.26052   2.26367   2.26526   2.26934   2.27230
 Alpha virt. eigenvalues --    2.28163   2.29203   2.30564   2.32548   2.32910
 Alpha virt. eigenvalues --    2.33176   2.33436   2.33664   2.33732   2.33915
 Alpha virt. eigenvalues --    2.34572   2.35048   2.36167   2.37316   2.37607
 Alpha virt. eigenvalues --    2.38708   2.40188   2.41766   2.42359   2.47913
 Alpha virt. eigenvalues --    2.49268   2.52249   2.52776   2.54026   2.55974
 Alpha virt. eigenvalues --    2.56375   2.56647   2.57343   2.58042   2.58424
 Alpha virt. eigenvalues --    2.58662   2.60133   2.60433   2.60893   2.61323
 Alpha virt. eigenvalues --    2.61926   2.62458   2.63169   2.63551   2.64055
 Alpha virt. eigenvalues --    2.64893   2.65226   2.65803   2.66043   2.66072
 Alpha virt. eigenvalues --    2.66331   2.67328   2.67713   2.68925   2.68978
 Alpha virt. eigenvalues --    2.69578   2.69720   2.69990   2.71988   2.73087
 Alpha virt. eigenvalues --    2.73448   2.73776   2.74425   2.75029   2.76207
 Alpha virt. eigenvalues --    2.77749   2.79222   2.79885   2.80085   2.81087
 Alpha virt. eigenvalues --    2.81516   2.81873   2.82187   2.83072   2.83690
 Alpha virt. eigenvalues --    2.84652   2.84865   2.85977   2.86112   2.86871
 Alpha virt. eigenvalues --    2.88174   2.90034   2.91795   2.92667   2.94305
 Alpha virt. eigenvalues --    2.94778   2.97679   2.99604   3.04178   3.05085
 Alpha virt. eigenvalues --    3.05833   3.06903   3.08283   3.08975   3.11992
 Alpha virt. eigenvalues --    3.12296   3.16072   3.16796   3.18004   3.18568
 Alpha virt. eigenvalues --    3.23957   3.24286   3.25141   3.25811   3.30490
 Alpha virt. eigenvalues --    3.30575   3.31048   3.31608   3.32754   3.33314
 Alpha virt. eigenvalues --    3.35027   3.36253   3.38875   3.40140   3.43759
 Alpha virt. eigenvalues --    3.44410   3.45932   3.46865   3.47018   3.47917
 Alpha virt. eigenvalues --    3.51883   3.51914   3.55472   3.56424   3.56796
 Alpha virt. eigenvalues --    3.57130   3.63238   3.64627   3.77701   3.77956
 Alpha virt. eigenvalues --    3.83645   3.84276   3.98730   3.99799   4.00250
 Alpha virt. eigenvalues --    4.01240   4.01580   4.02791   4.04205   4.05266
 Alpha virt. eigenvalues --    4.11443   4.11692   4.13136   4.14908   4.20816
 Alpha virt. eigenvalues --    4.22134   4.54763   4.56335   4.79430   4.79548
 Alpha virt. eigenvalues --    4.80600   4.81134   7.81776   7.83444   7.88024
 Alpha virt. eigenvalues --    7.89860  17.20614  17.21196  17.22926  17.24199
 Alpha virt. eigenvalues --   17.44489  17.46200  17.51601  17.52661  17.53002
 Alpha virt. eigenvalues --   17.54240  17.54727  17.58156  23.37062  23.38216
 Alpha virt. eigenvalues --   23.55265  23.55729  23.69759  23.70738  23.85593
 Alpha virt. eigenvalues --   23.86301  23.86895  23.87145  23.90897  23.91012
 Alpha virt. eigenvalues --   23.92550  23.92949  23.98033  23.99143  24.00903
 Alpha virt. eigenvalues --   24.01938  24.03529  24.04555  24.06974  24.07095
 Alpha virt. eigenvalues --   24.08049  24.08311  24.14384  24.14481  24.15516
 Alpha virt. eigenvalues --   24.15850 188.92920 188.94944 189.00626 189.02906
          Condensed to atoms (all electrons):
               1          2          3          4          5          6
     1  S   15.391277   0.009173  -0.063358   0.006171  -0.000358   0.009773
     2  S    0.009173  15.384008  -0.000208  -0.000029   0.000310   0.002615
     3  C   -0.063358  -0.000208   4.870987   0.506855  -0.038366  -0.056550
     4  C    0.006171  -0.000029   0.506855   4.895539   0.488822  -0.048909
     5  C   -0.000358   0.000310  -0.038366   0.488822   4.884395   0.508314
     6  C    0.009773   0.002615  -0.056550  -0.048909   0.508314   4.887267
     7  C    0.001110   0.010036  -0.000001  -0.000000  -0.000000  -0.000002
     8  C    0.000346  -0.000259   0.000000  -0.000000   0.000000  -0.000000
     9  C   -0.000082   0.006194  -0.000000   0.000000  -0.000000   0.000000
    10  C   -0.000094  -0.063043   0.000000  -0.000000   0.000000  -0.000000
    11  C    0.007863   0.305435   0.000033  -0.000002   0.000002  -0.000293
    12  C   -0.071967  -0.087443  -0.000516   0.000025  -0.000016  -0.000009
    13  C    0.295260  -0.093408  -0.000591  -0.000014  -0.000611   0.011261
    14  C   -0.096369   0.315588   0.018045  -0.001254   0.013553  -0.090904
    15  C   -0.093439  -0.070756   0.009671  -0.052973  -0.027662   0.479051
    16  C    0.284992   0.009175   0.443961  -0.045583  -0.055960  -0.044304
    17  H   -0.003494   0.000018   0.415162  -0.039039   0.007245  -0.000721
    18  H    0.000124  -0.000003   0.007115  -0.042608   0.411364  -0.038596
    19  H   -0.000689   0.003308  -0.000956   0.007630  -0.040251   0.419180
    20  H    0.004895  -0.000655  -0.000004  -0.000000  -0.000000  -0.000001
    21  H    0.000004   0.000110  -0.000000   0.000000  -0.000000   0.000000
    22  H   -0.000003  -0.000373  -0.000000   0.000000   0.000000   0.000000
    23  H    0.000025  -0.003366   0.000000  -0.000000   0.000000  -0.000000
    24  H   -0.000368  -0.000003  -0.041936   0.414357  -0.043654   0.007770
    25  S   -0.009571  -0.000052   0.000092   0.000019  -0.000010  -0.000014
    26  S   -0.004447   0.000006  -0.000013  -0.000001   0.000000  -0.000001
    27  C   -0.001810  -0.000000   0.000396  -0.000078  -0.000002  -0.000001
    28  C   -0.000424  -0.000000  -0.000876  -0.000093   0.000000  -0.000000
    29  C   -0.000280   0.000000  -0.000689   0.000001  -0.000000   0.000000
    30  C    0.000028   0.000000   0.000161   0.000015  -0.000000   0.000000
    31  C   -0.000014   0.000008   0.000000   0.000000   0.000000  -0.000000
    32  C    0.000024  -0.000000  -0.000000  -0.000000   0.000000  -0.000000
    33  C    0.000033  -0.000000  -0.000000  -0.000000  -0.000000   0.000000
    34  C   -0.000037   0.000000  -0.000000   0.000000  -0.000000   0.000000
    35  C   -0.002417   0.000006  -0.000000   0.000000   0.000000   0.000000
    36  C   -0.000554   0.000005   0.000000   0.000000  -0.000000   0.000000
    37  C   -0.003898  -0.000008  -0.000016  -0.000000   0.000000   0.000000
    38  C   -0.012696  -0.000001  -0.000056  -0.000001   0.000000  -0.000000
    39  C    0.002783   0.000000   0.000365   0.000013  -0.000000   0.000001
    40  C   -0.008150  -0.000000   0.000449   0.000006   0.000000   0.000000
    41  H   -0.000039  -0.000000   0.000110   0.000022  -0.000001  -0.000000
    42  H    0.000001   0.000000   0.000008  -0.000000   0.000000   0.000000
    43  H    0.000143  -0.000000   0.000010   0.000000   0.000000   0.000000
    44  H    0.000023   0.000003   0.000000  -0.000000  -0.000000   0.000000
    45  H    0.000000   0.000000  -0.000000  -0.000000   0.000000  -0.000000
    46  H    0.000001   0.000000   0.000000   0.000000  -0.000000   0.000000
    47  H    0.000003  -0.000000  -0.000000  -0.000000   0.000000  -0.000000
    48  H    0.000015   0.000000   0.000049   0.000009   0.000000  -0.000000
               7          8          9         10         11         12
     1  S    0.001110   0.000346  -0.000082  -0.000094   0.007863  -0.071967
     2  S    0.010036  -0.000259   0.006194  -0.063043   0.305435  -0.087443
     3  C   -0.000001   0.000000  -0.000000   0.000000   0.000033  -0.000516
     4  C   -0.000000  -0.000000   0.000000  -0.000000  -0.000002   0.000025
     5  C   -0.000000   0.000000  -0.000000   0.000000   0.000002  -0.000016
     6  C   -0.000002  -0.000000   0.000000  -0.000000  -0.000293  -0.000009
     7  C    4.899995   0.491088  -0.039507  -0.063378  -0.035600   0.470223
     8  C    0.491088   4.916377   0.476366  -0.031192  -0.063109  -0.007704
     9  C   -0.039507   0.476366   4.898144   0.501810  -0.041753  -0.059884
    10  C   -0.063378  -0.031192   0.501810   4.880287   0.433176   0.016890
    11  C   -0.035600  -0.063109  -0.041753   0.433176   5.402570   0.399783
    12  C    0.470223  -0.007704  -0.059884   0.016890   0.399783   4.982519
    13  C   -0.091973   0.015978  -0.001710   0.018886  -0.104132   0.393844
    14  C    0.012225  -0.000692   0.000009  -0.000592  -0.087834  -0.007696
    15  C    0.000058  -0.000018   0.000027  -0.000514   0.003611   0.021237
    16  C   -0.000251   0.000004  -0.000002   0.000034  -0.000098   0.003903
    17  H   -0.000000   0.000000  -0.000000   0.000000   0.000001  -0.000009
    18  H    0.000000  -0.000000  -0.000000   0.000000  -0.000000  -0.000000
    19  H    0.000000  -0.000000   0.000000  -0.000003  -0.000110   0.000020
    20  H    0.410749  -0.048447   0.009367  -0.001865   0.010804  -0.053966
    21  H   -0.039147   0.409348  -0.046225   0.007732  -0.000167   0.008903
    22  H    0.008052  -0.043991   0.414639  -0.042593   0.009165  -0.000494
    23  H   -0.000681   0.007595  -0.037862   0.419700  -0.047964   0.007354
    24  H    0.000000   0.000000   0.000000  -0.000000  -0.000000  -0.000000
    25  S   -0.000059  -0.000008  -0.000001  -0.000000  -0.000032   0.000234
    26  S   -0.005964   0.000476   0.000037  -0.000009  -0.000023  -0.000849
    27  C   -0.000000  -0.000000   0.000000  -0.000000  -0.000000   0.000001
    28  C    0.000000   0.000000  -0.000000   0.000000   0.000000  -0.000000
    29  C   -0.000000  -0.000000   0.000000  -0.000000   0.000000   0.000000
    30  C   -0.000000  -0.000000  -0.000000   0.000000   0.000000   0.000000
    31  C    0.002128   0.000303  -0.000017  -0.000009   0.000002   0.000088
    32  C    0.000009   0.000073  -0.000103   0.000004  -0.000004  -0.000078
    33  C    0.001737  -0.004876  -0.000442   0.000012  -0.000018   0.000259
    34  C   -0.002203  -0.003550  -0.000090   0.000004  -0.000004   0.000199
    35  C   -0.011197   0.000629   0.000116  -0.000016   0.000028  -0.000320
    36  C   -0.003353   0.000007   0.000048  -0.000004   0.000011   0.000035
    37  C   -0.000208   0.000041  -0.000001   0.000001   0.000002  -0.000161
    38  C    0.001224   0.000030  -0.000001   0.000000  -0.000005  -0.000134
    39  C    0.000033  -0.000000  -0.000000   0.000000  -0.000000  -0.000025
    40  C   -0.000009  -0.000000   0.000000  -0.000000  -0.000000   0.000010
    41  H   -0.000000  -0.000000   0.000000  -0.000000  -0.000000   0.000000
    42  H   -0.000000   0.000000   0.000000  -0.000000   0.000000   0.000000
    43  H    0.000000  -0.000000  -0.000000   0.000000  -0.000000  -0.000000
    44  H    0.000132   0.000029  -0.000006  -0.000002  -0.000000   0.000028
    45  H    0.000016   0.000114   0.000034   0.000000  -0.000001  -0.000008
    46  H    0.000048   0.000056   0.000012  -0.000001  -0.000001   0.000002
    47  H   -0.000104   0.000124   0.000002   0.000000   0.000000  -0.000007
    48  H   -0.000000  -0.000000   0.000000  -0.000000  -0.000000   0.000000
              13         14         15         16         17         18
     1  S    0.295260  -0.096369  -0.093439   0.284992  -0.003494   0.000124
     2  S   -0.093408   0.315588  -0.070756   0.009175   0.000018  -0.000003
     3  C   -0.000591   0.018045   0.009671   0.443961   0.415162   0.007115
     4  C   -0.000014  -0.001254  -0.052973  -0.045583  -0.039039  -0.042608
     5  C   -0.000611   0.013553  -0.027662  -0.055960   0.007245   0.411364
     6  C    0.011261  -0.090904   0.479051  -0.044304  -0.000721  -0.038596
     7  C   -0.091973   0.012225   0.000058  -0.000251  -0.000000   0.000000
     8  C    0.015978  -0.000692  -0.000018   0.000004   0.000000  -0.000000
     9  C   -0.001710   0.000009   0.000027  -0.000002  -0.000000  -0.000000
    10  C    0.018886  -0.000592  -0.000514   0.000034   0.000000   0.000000
    11  C   -0.104132  -0.087834   0.003611  -0.000098   0.000001  -0.000000
    12  C    0.393844  -0.007696   0.021237   0.003903  -0.000009  -0.000000
    13  C    5.492703   0.362163  -0.013178  -0.076867  -0.000172   0.000015
    14  C    0.362163   5.472457   0.393068  -0.098276  -0.000258  -0.000469
    15  C   -0.013178   0.393068   4.956636   0.413250   0.007380   0.007641
    16  C   -0.076867  -0.098276   0.413250   5.424836  -0.043126   0.000240
    17  H   -0.000172  -0.000258   0.007380  -0.043126   0.551587  -0.000307
    18  H    0.000015  -0.000469   0.007641   0.000240  -0.000307   0.576266
    19  H    0.000098  -0.012288  -0.045085   0.009071   0.000060  -0.007757
    20  H   -0.017352   0.000294   0.000027  -0.000249   0.000001   0.000000
    21  H   -0.000411   0.000018  -0.000000  -0.000000  -0.000000   0.000000
    22  H   -0.000005   0.000010  -0.000000  -0.000000   0.000000   0.000000
    23  H   -0.000330  -0.000118  -0.000008   0.000001   0.000000  -0.000000
    24  H    0.000010  -0.000004  -0.000352   0.009047  -0.007588  -0.007655
    25  S   -0.000147   0.000243   0.000012  -0.000212  -0.000003  -0.000000
    26  S    0.000123   0.000067  -0.000035   0.000070   0.000004   0.000000
    27  C   -0.000000   0.000001   0.000016   0.000410   0.000366   0.000000
    28  C   -0.000004   0.000000   0.000006   0.000136   0.003061   0.000000
    29  C    0.000005  -0.000000   0.000002   0.000083   0.002288   0.000000
    30  C    0.000029  -0.000002  -0.000001  -0.000162   0.000040  -0.000000
    31  C   -0.000026  -0.000002  -0.000000  -0.000000  -0.000000   0.000000
    32  C   -0.000007  -0.000000  -0.000000   0.000000   0.000000   0.000000
    33  C    0.000001  -0.000000   0.000000  -0.000000   0.000000  -0.000000
    34  C   -0.000004  -0.000000   0.000000   0.000000  -0.000000  -0.000000
    35  C    0.000046  -0.000002  -0.000000   0.000001  -0.000000  -0.000000
    36  C   -0.000027   0.000001   0.000003  -0.000027  -0.000001  -0.000000
    37  C    0.000431  -0.000022   0.000001   0.000093   0.000015   0.000000
    38  C    0.000306  -0.000000  -0.000005   0.000546   0.000021   0.000000
    39  C    0.000158  -0.000011   0.000003  -0.000401  -0.000607  -0.000000
    40  C    0.000039  -0.000000  -0.000021  -0.000090  -0.001179   0.000000
    41  H    0.000001   0.000000  -0.000001   0.000006   0.000033  -0.000000
    42  H    0.000000  -0.000000   0.000000   0.000000   0.000060  -0.000000
    43  H   -0.000005   0.000000  -0.000000  -0.000010   0.000015  -0.000000
    44  H   -0.000013  -0.000001   0.000000   0.000000  -0.000000  -0.000000
    45  H   -0.000000   0.000000  -0.000000   0.000000   0.000000   0.000000
    46  H   -0.000000  -0.000000   0.000000  -0.000000  -0.000000   0.000000
    47  H   -0.000001   0.000000  -0.000000   0.000000  -0.000000   0.000000
    48  H    0.000000  -0.000000  -0.000000  -0.000003   0.000080  -0.000000
              19         20         21         22         23         24
     1  S   -0.000689   0.004895   0.000004  -0.000003   0.000025  -0.000368
     2  S    0.003308  -0.000655   0.000110  -0.000373  -0.003366  -0.000003
     3  C   -0.000956  -0.000004  -0.000000  -0.000000   0.000000  -0.041936
     4  C    0.007630  -0.000000   0.000000   0.000000  -0.000000   0.414357
     5  C   -0.040251  -0.000000  -0.000000   0.000000   0.000000  -0.043654
     6  C    0.419180  -0.000001   0.000000   0.000000  -0.000000   0.007770
     7  C    0.000000   0.410749  -0.039147   0.008052  -0.000681   0.000000
     8  C   -0.000000  -0.048447   0.409348  -0.043991   0.007595   0.000000
     9  C    0.000000   0.009367  -0.046225   0.414639  -0.037862   0.000000
    10  C   -0.000003  -0.001865   0.007732  -0.042593   0.419700  -0.000000
    11  C   -0.000110   0.010804  -0.000167   0.009165  -0.047964  -0.000000
    12  C    0.000020  -0.053966   0.008903  -0.000494   0.007354  -0.000000
    13  C    0.000098  -0.017352  -0.000411  -0.000005  -0.000330   0.000010
    14  C   -0.012288   0.000294   0.000018   0.000010  -0.000118  -0.000004
    15  C   -0.045085   0.000027  -0.000000  -0.000000  -0.000008  -0.000352
    16  C    0.009071  -0.000249  -0.000000  -0.000000   0.000001   0.009047
    17  H    0.000060   0.000001  -0.000000   0.000000   0.000000  -0.007588
    18  H   -0.007757   0.000000   0.000000   0.000000  -0.000000  -0.007655
    19  H    0.574697   0.000000   0.000000   0.000000   0.000000  -0.000315
    20  H    0.000000   0.592622  -0.009979  -0.000282   0.000062   0.000000
    21  H    0.000000  -0.009979   0.579607  -0.007984  -0.000319   0.000000
    22  H    0.000000  -0.000282  -0.007984   0.578006  -0.007953  -0.000000
    23  H    0.000000   0.000062  -0.000319  -0.007953   0.569608   0.000000
    24  H   -0.000315   0.000000   0.000000  -0.000000   0.000000   0.576773
    25  S    0.000001  -0.000043  -0.000001   0.000000   0.000000  -0.000000
    26  S   -0.000000   0.003693  -0.000309   0.000003  -0.000000  -0.000000
    27  C   -0.000000   0.000003  -0.000000   0.000000  -0.000000   0.000016
    28  C   -0.000000  -0.000000   0.000000  -0.000000   0.000000   0.000021
    29  C   -0.000000   0.000000  -0.000000  -0.000000  -0.000000   0.000002
    30  C    0.000000  -0.000007  -0.000000  -0.000000   0.000000  -0.000000
    31  C    0.000000  -0.001842  -0.000360   0.000005  -0.000000  -0.000000
    32  C   -0.000000  -0.000515  -0.000085   0.000013   0.000000  -0.000000
    33  C    0.000000  -0.002499   0.006150  -0.000034   0.000001   0.000000
    34  C   -0.000000  -0.001161   0.005075  -0.000013   0.000000   0.000000
    35  C   -0.000000   0.001662  -0.000766   0.000002  -0.000000  -0.000000
    36  C    0.000000  -0.000542  -0.000329   0.000002  -0.000000   0.000000
    37  C   -0.000000  -0.000046   0.000007  -0.000000   0.000000  -0.000000
    38  C   -0.000000  -0.004330   0.000028  -0.000000   0.000000   0.000000
    39  C   -0.000000  -0.000168   0.000000  -0.000000   0.000000   0.000000
    40  C   -0.000000   0.000008  -0.000000   0.000000  -0.000000   0.000001
    41  H    0.000000   0.000000  -0.000000   0.000000  -0.000000   0.000001
    42  H    0.000000  -0.000000  -0.000000   0.000000  -0.000000  -0.000000
    43  H    0.000000   0.000002  -0.000000   0.000000   0.000000  -0.000000
    44  H    0.000000   0.000001   0.000004  -0.000000   0.000000   0.000000
    45  H   -0.000000   0.000023  -0.000033   0.000002  -0.000000  -0.000000
    46  H    0.000000   0.000024   0.000228   0.000005  -0.000000  -0.000000
    47  H   -0.000000   0.000104   0.000302  -0.000001  -0.000000   0.000000
    48  H    0.000000   0.000000   0.000000   0.000000   0.000000   0.000003
              25         26         27         28         29         30
     1  S   -0.009571  -0.004447  -0.001810  -0.000424  -0.000280   0.000028
     2  S   -0.000052   0.000006  -0.000000  -0.000000   0.000000   0.000000
     3  C    0.000092  -0.000013   0.000396  -0.000876  -0.000689   0.000161
     4  C    0.000019  -0.000001  -0.000078  -0.000093   0.000001   0.000015
     5  C   -0.000010   0.000000  -0.000002   0.000000  -0.000000  -0.000000
     6  C   -0.000014  -0.000001  -0.000001  -0.000000   0.000000   0.000000
     7  C   -0.000059  -0.005964  -0.000000   0.000000  -0.000000  -0.000000
     8  C   -0.000008   0.000476  -0.000000   0.000000  -0.000000  -0.000000
     9  C   -0.000001   0.000037   0.000000  -0.000000   0.000000  -0.000000
    10  C   -0.000000  -0.000009  -0.000000   0.000000  -0.000000   0.000000
    11  C   -0.000032  -0.000023  -0.000000   0.000000   0.000000   0.000000
    12  C    0.000234  -0.000849   0.000001  -0.000000   0.000000   0.000000
    13  C   -0.000147   0.000123  -0.000000  -0.000004   0.000005   0.000029
    14  C    0.000243   0.000067   0.000001   0.000000  -0.000000  -0.000002
    15  C    0.000012  -0.000035   0.000016   0.000006   0.000002  -0.000001
    16  C   -0.000212   0.000070   0.000410   0.000136   0.000083  -0.000162
    17  H   -0.000003   0.000004   0.000366   0.003061   0.002288   0.000040
    18  H   -0.000000   0.000000   0.000000   0.000000   0.000000  -0.000000
    19  H    0.000001  -0.000000  -0.000000  -0.000000  -0.000000   0.000000
    20  H   -0.000043   0.003693   0.000003  -0.000000   0.000000  -0.000007
    21  H   -0.000001  -0.000309  -0.000000   0.000000  -0.000000  -0.000000
    22  H    0.000000   0.000003   0.000000  -0.000000  -0.000000  -0.000000
    23  H    0.000000  -0.000000  -0.000000   0.000000  -0.000000   0.000000
    24  H   -0.000000  -0.000000   0.000016   0.000021   0.000002  -0.000000
    25  S   15.367052   0.011986  -0.063528   0.006383  -0.000436   0.010688
    26  S    0.011986  15.392631  -0.000273   0.000004   0.000256   0.002882
    27  C   -0.063528  -0.000273   4.869496   0.505974  -0.039446  -0.055470
    28  C    0.006383   0.000004   0.505974   4.894890   0.485662  -0.049817
    29  C   -0.000436   0.000256  -0.039446   0.485662   4.894699   0.504334
    30  C    0.010688   0.002882  -0.055470  -0.049817   0.504334   4.887750
    31  C    0.002682   0.009489  -0.000001   0.000000  -0.000000  -0.000001
    32  C    0.000308   0.000129   0.000000  -0.000000   0.000000  -0.000000
    33  C   -0.000021   0.005651  -0.000000   0.000000  -0.000000   0.000000
    34  C   -0.000239  -0.059591   0.000000  -0.000000   0.000000  -0.000001
    35  C    0.009379   0.326548   0.000033  -0.000002   0.000002  -0.000289
    36  C   -0.071005  -0.099497  -0.000494   0.000026  -0.000016   0.000094
    37  C    0.327232  -0.087000  -0.000429  -0.000051  -0.000620   0.011542
    38  C   -0.093701   0.318592   0.017522  -0.001191   0.013383  -0.092995
    39  C   -0.087012  -0.073523   0.008935  -0.052890  -0.029724   0.482675
    40  C    0.319027   0.009660   0.437561  -0.045517  -0.056577  -0.039407
    41  H   -0.003364   0.000021   0.420336  -0.037366   0.007390  -0.000639
    42  H    0.000099  -0.000006   0.007014  -0.041932   0.412447  -0.038007
    43  H   -0.000575   0.003262  -0.000983   0.007602  -0.040137   0.421316
    44  H    0.002998  -0.000632  -0.000003   0.000000  -0.000000   0.000000
    45  H   -0.000001   0.000108   0.000000  -0.000000  -0.000000   0.000000
    46  H   -0.000003  -0.000415  -0.000000   0.000000   0.000000   0.000000
    47  H    0.000022  -0.003006   0.000000  -0.000000   0.000000  -0.000000
    48  H   -0.000371  -0.000003  -0.041067   0.415050  -0.043180   0.007604
              31         32         33         34         35         36
     1  S   -0.000014   0.000024   0.000033  -0.000037  -0.002417  -0.000554
     2  S    0.000008  -0.000000  -0.000000   0.000000   0.000006   0.000005
     3  C    0.000000  -0.000000  -0.000000  -0.000000  -0.000000   0.000000
     4  C    0.000000  -0.000000  -0.000000   0.000000   0.000000   0.000000
     5  C    0.000000   0.000000  -0.000000  -0.000000   0.000000  -0.000000
     6  C   -0.000000  -0.000000   0.000000   0.000000   0.000000   0.000000
     7  C    0.002128   0.000009   0.001737  -0.002203  -0.011197  -0.003353
     8  C    0.000303   0.000073  -0.004876  -0.003550   0.000629   0.000007
     9  C   -0.000017  -0.000103  -0.000442  -0.000090   0.000116   0.000048
    10  C   -0.000009   0.000004   0.000012   0.000004  -0.000016  -0.000004
    11  C    0.000002  -0.000004  -0.000018  -0.000004   0.000028   0.000011
    12  C    0.000088  -0.000078   0.000259   0.000199  -0.000320   0.000035
    13  C   -0.000026  -0.000007   0.000001  -0.000004   0.000046  -0.000027
    14  C   -0.000002  -0.000000  -0.000000  -0.000000  -0.000002   0.000001
    15  C   -0.000000  -0.000000   0.000000   0.000000  -0.000000   0.000003
    16  C   -0.000000   0.000000  -0.000000   0.000000   0.000001  -0.000027
    17  H   -0.000000   0.000000   0.000000  -0.000000  -0.000000  -0.000001
    18  H    0.000000   0.000000  -0.000000  -0.000000  -0.000000  -0.000000
    19  H    0.000000  -0.000000   0.000000  -0.000000  -0.000000   0.000000
    20  H   -0.001842  -0.000515  -0.002499  -0.001161   0.001662  -0.000542
    21  H   -0.000360  -0.000085   0.006150   0.005075  -0.000766  -0.000329
    22  H    0.000005   0.000013  -0.000034  -0.000013   0.000002   0.000002
    23  H   -0.000000   0.000000   0.000001   0.000000  -0.000000  -0.000000
    24  H   -0.000000  -0.000000   0.000000   0.000000  -0.000000   0.000000
    25  S    0.002682   0.000308  -0.000021  -0.000239   0.009379  -0.071005
    26  S    0.009489   0.000129   0.005651  -0.059591   0.326548  -0.099497
    27  C   -0.000001   0.000000  -0.000000   0.000000   0.000033  -0.000494
    28  C    0.000000  -0.000000   0.000000  -0.000000  -0.000002   0.000026
    29  C   -0.000000   0.000000  -0.000000   0.000000   0.000002  -0.000016
    30  C   -0.000001  -0.000000   0.000000  -0.000001  -0.000289   0.000094
    31  C    4.862988   0.511420  -0.050849  -0.050170  -0.041420   0.487258
    32  C    0.511420   4.868848   0.489318  -0.040318  -0.056649  -0.029214
    33  C   -0.050849   0.489318   4.888881   0.510087  -0.051422  -0.049794
    34  C   -0.050170  -0.040318   0.510087   4.872735   0.437704  -0.000540
    35  C   -0.041420  -0.056649  -0.051422   0.437704   5.488812   0.384907
    36  C    0.487258  -0.029214  -0.049794  -0.000540   0.384907   4.949297
    37  C   -0.088863   0.013450  -0.001110   0.015930  -0.093968   0.396524
    38  C    0.011269  -0.000677  -0.000040   0.000070  -0.095467  -0.016923
    39  C    0.000087  -0.000020   0.000028  -0.000525   0.002205   0.021206
    40  C   -0.000310   0.000002  -0.000002   0.000033  -0.000001   0.003245
    41  H   -0.000000   0.000000  -0.000000   0.000000   0.000001  -0.000007
    42  H    0.000000  -0.000000  -0.000000   0.000000  -0.000000   0.000000
    43  H    0.000000  -0.000000   0.000000  -0.000003  -0.000077   0.000009
    44  H    0.420561  -0.039326   0.007685  -0.000914   0.008981  -0.045486
    45  H   -0.037138   0.411107  -0.041752   0.006943   0.000247   0.007472
    46  H    0.007481  -0.041733   0.414695  -0.042712   0.008904  -0.000275
    47  H   -0.000699   0.007504  -0.038176   0.422508  -0.048555   0.007348
    48  H    0.000000   0.000000   0.000000  -0.000000  -0.000000  -0.000000
              37         38         39         40         41         42
     1  S   -0.003898  -0.012696   0.002783  -0.008150  -0.000039   0.000001
     2  S   -0.000008  -0.000001   0.000000  -0.000000  -0.000000   0.000000
     3  C   -0.000016  -0.000056   0.000365   0.000449   0.000110   0.000008
     4  C   -0.000000  -0.000001   0.000013   0.000006   0.000022  -0.000000
     5  C    0.000000   0.000000  -0.000000   0.000000  -0.000001   0.000000
     6  C    0.000000  -0.000000   0.000001   0.000000  -0.000000   0.000000
     7  C   -0.000208   0.001224   0.000033  -0.000009  -0.000000  -0.000000
     8  C    0.000041   0.000030  -0.000000  -0.000000  -0.000000   0.000000
     9  C   -0.000001  -0.000001  -0.000000   0.000000   0.000000   0.000000
    10  C    0.000001   0.000000   0.000000  -0.000000  -0.000000  -0.000000
    11  C    0.000002  -0.000005  -0.000000  -0.000000  -0.000000   0.000000
    12  C   -0.000161  -0.000134  -0.000025   0.000010   0.000000   0.000000
    13  C    0.000431   0.000306   0.000158   0.000039   0.000001   0.000000
    14  C   -0.000022  -0.000000  -0.000011  -0.000000   0.000000  -0.000000
    15  C    0.000001  -0.000005   0.000003  -0.000021  -0.000001   0.000000
    16  C    0.000093   0.000546  -0.000401  -0.000090   0.000006   0.000000
    17  H    0.000015   0.000021  -0.000607  -0.001179   0.000033   0.000060
    18  H    0.000000   0.000000  -0.000000   0.000000  -0.000000  -0.000000
    19  H   -0.000000  -0.000000  -0.000000  -0.000000   0.000000   0.000000
    20  H   -0.000046  -0.004330  -0.000168   0.000008   0.000000  -0.000000
    21  H    0.000007   0.000028   0.000000  -0.000000  -0.000000  -0.000000
    22  H   -0.000000  -0.000000  -0.000000   0.000000   0.000000   0.000000
    23  H    0.000000   0.000000   0.000000  -0.000000  -0.000000  -0.000000
    24  H   -0.000000   0.000000   0.000000   0.000001   0.000001  -0.000000
    25  S    0.327232  -0.093701  -0.087012   0.319027  -0.003364   0.000099
    26  S   -0.087000   0.318592  -0.073523   0.009660   0.000021  -0.000006
    27  C   -0.000429   0.017522   0.008935   0.437561   0.420336   0.007014
    28  C   -0.000051  -0.001191  -0.052890  -0.045517  -0.037366  -0.041932
    29  C   -0.000620   0.013383  -0.029724  -0.056577   0.007390   0.412447
    30  C    0.011542  -0.092995   0.482675  -0.039407  -0.000639  -0.038007
    31  C   -0.088863   0.011269   0.000087  -0.000310  -0.000000   0.000000
    32  C    0.013450  -0.000677  -0.000020   0.000002   0.000000  -0.000000
    33  C   -0.001110  -0.000040   0.000028  -0.000002  -0.000000  -0.000000
    34  C    0.015930   0.000070  -0.000525   0.000033   0.000000   0.000000
    35  C   -0.093968  -0.095467   0.002205  -0.000001   0.000001  -0.000000
    36  C    0.396524  -0.016923   0.021206   0.003245  -0.000007   0.000000
    37  C    5.435675   0.361571  -0.012031  -0.091210  -0.000080   0.000017
    38  C    0.361571   5.474057   0.376634  -0.096574  -0.000340  -0.000462
    39  C   -0.012031   0.376634   4.986322   0.406959   0.007314   0.007570
    40  C   -0.091210  -0.096574   0.406959   5.380372  -0.046444   0.000209
    41  H   -0.000080  -0.000340   0.007314  -0.046444   0.561437  -0.000312
    42  H    0.000017  -0.000462   0.007570   0.000209  -0.000312   0.568708
    43  H    0.000042  -0.011882  -0.044432   0.009166   0.000061  -0.007614
    44  H   -0.011947   0.000122   0.000013  -0.000092   0.000000   0.000000
    45  H   -0.000465   0.000016  -0.000000  -0.000000  -0.000000   0.000000
    46  H   -0.000002   0.000010  -0.000000  -0.000000   0.000000   0.000000
    47  H   -0.000299  -0.000105  -0.000010   0.000001   0.000000  -0.000000
    48  H    0.000010  -0.000002  -0.000372   0.008839  -0.007735  -0.007412
              43         44         45         46         47         48
     1  S    0.000143   0.000023   0.000000   0.000001   0.000003   0.000015
     2  S   -0.000000   0.000003   0.000000   0.000000  -0.000000   0.000000
     3  C    0.000010   0.000000  -0.000000   0.000000  -0.000000   0.000049
     4  C    0.000000  -0.000000  -0.000000   0.000000  -0.000000   0.000009
     5  C    0.000000  -0.000000   0.000000  -0.000000   0.000000   0.000000
     6  C    0.000000   0.000000  -0.000000   0.000000  -0.000000  -0.000000
     7  C    0.000000   0.000132   0.000016   0.000048  -0.000104  -0.000000
     8  C   -0.000000   0.000029   0.000114   0.000056   0.000124  -0.000000
     9  C   -0.000000  -0.000006   0.000034   0.000012   0.000002   0.000000
    10  C    0.000000  -0.000002   0.000000  -0.000001   0.000000  -0.000000
    11  C   -0.000000  -0.000000  -0.000001  -0.000001   0.000000  -0.000000
    12  C   -0.000000   0.000028  -0.000008   0.000002  -0.000007   0.000000
    13  C   -0.000005  -0.000013  -0.000000  -0.000000  -0.000001   0.000000
    14  C    0.000000  -0.000001   0.000000  -0.000000   0.000000  -0.000000
    15  C   -0.000000   0.000000  -0.000000   0.000000  -0.000000  -0.000000
    16  C   -0.000010   0.000000   0.000000  -0.000000   0.000000  -0.000003
    17  H    0.000015  -0.000000   0.000000  -0.000000  -0.000000   0.000080
    18  H   -0.000000  -0.000000   0.000000   0.000000   0.000000  -0.000000
    19  H    0.000000   0.000000  -0.000000   0.000000  -0.000000   0.000000
    20  H    0.000002   0.000001   0.000023   0.000024   0.000104   0.000000
    21  H   -0.000000   0.000004  -0.000033   0.000228   0.000302   0.000000
    22  H    0.000000  -0.000000   0.000002   0.000005  -0.000001   0.000000
    23  H    0.000000   0.000000  -0.000000  -0.000000  -0.000000   0.000000
    24  H   -0.000000   0.000000  -0.000000  -0.000000   0.000000   0.000003
    25  S   -0.000575   0.002998  -0.000001  -0.000003   0.000022  -0.000371
    26  S    0.003262  -0.000632   0.000108  -0.000415  -0.003006  -0.000003
    27  C   -0.000983  -0.000003   0.000000  -0.000000   0.000000  -0.041067
    28  C    0.007602   0.000000  -0.000000   0.000000  -0.000000   0.415050
    29  C   -0.040137  -0.000000  -0.000000   0.000000   0.000000  -0.043180
    30  C    0.421316   0.000000   0.000000   0.000000  -0.000000   0.007604
    31  C    0.000000   0.420561  -0.037138   0.007481  -0.000699   0.000000
    32  C   -0.000000  -0.039326   0.411107  -0.041733   0.007504   0.000000
    33  C    0.000000   0.007685  -0.041752   0.414695  -0.038176   0.000000
    34  C   -0.000003  -0.000914   0.006943  -0.042712   0.422508  -0.000000
    35  C   -0.000077   0.008981   0.000247   0.008904  -0.048555  -0.000000
    36  C    0.000009  -0.045486   0.007472  -0.000275   0.007348  -0.000000
    37  C    0.000042  -0.011947  -0.000465  -0.000002  -0.000299   0.000010
    38  C   -0.011882   0.000122   0.000016   0.000010  -0.000105  -0.000002
    39  C   -0.044432   0.000013  -0.000000  -0.000000  -0.000010  -0.000372
    40  C    0.009166  -0.000092  -0.000000  -0.000000   0.000001   0.008839
    41  H    0.000061   0.000000  -0.000000   0.000000   0.000000  -0.007735
    42  H   -0.007614   0.000000   0.000000   0.000000  -0.000000  -0.007412
    43  H    0.567661   0.000000   0.000000  -0.000000   0.000000  -0.000304
    44  H    0.000000   0.567894  -0.007599  -0.000302   0.000059   0.000000
    45  H    0.000000  -0.007599   0.569260  -0.007378  -0.000312   0.000000
    46  H   -0.000000  -0.000302  -0.007378   0.569117  -0.007819  -0.000000
    47  H    0.000000   0.000059  -0.000312  -0.007819   0.562285   0.000000
    48  H   -0.000304   0.000000   0.000000  -0.000000   0.000000   0.568415
 Mulliken charges:
               1
     1  S    0.360492
     2  S    0.273608
     3  C   -0.069333
     4  C   -0.088900
     5  C   -0.107115
     6  C   -0.044928
     7  C   -0.015226
     8  C   -0.115137
     9  C   -0.079117
    10  C   -0.075222
    11  C   -0.191337
    12  C   -0.014271
    13  C   -0.190372
    14  C   -0.190948
    15  C    0.012349
    16  C   -0.234238
    17  H    0.109071
    18  H    0.094627
    19  H    0.093387
    20  H    0.109615
    21  H    0.088598
    22  H    0.093823
    23  H    0.094256
    24  H    0.093877
    25  S    0.271955
    26  S    0.249900
    27  C   -0.064495
    28  C   -0.088649
    29  C   -0.109445
    30  C   -0.052360
    31  C   -0.044046
    32  C   -0.093480
    33  C   -0.083502
    34  C   -0.069216
    35  C   -0.267645
    36  C    0.060593
    37  C   -0.170149
    38  C   -0.147811
    39  C   -0.001549
    40  C   -0.190003
    41  H    0.099594
    42  H    0.099614
[...]
 Alpha  occ. eigenvalues --   -0.59365  -0.58463  -0.56987  -0.51417  -0.50220
 Alpha  occ. eigenvalues --   -0.49097  -0.47492  -0.45651  -0.45496  -0.43992
 Alpha  occ. eigenvalues --   -0.43459  -0.43123  -0.40830  -0.40503  -0.39185
 Alpha  occ. eigenvalues --   -0.37284  -0.36629  -0.36204  -0.34755  -0.34568
 Alpha  occ. eigenvalues --   -0.34541  -0.32716  -0.28877  -0.28202  -0.24977
 Alpha  occ. eigenvalues --   -0.22873  -0.21142
 Alpha virt. eigenvalues --   -0.05634  -0.02355  -0.01598  -0.00538   0.00529
 Alpha virt. eigenvalues --    0.01813   0.04007   0.04132   0.04931   0.06274
 Alpha virt. eigenvalues --    0.07391   0.07898   0.08378   0.11281   0.12155
 Alpha virt. eigenvalues --    0.12961   0.13135   0.13213   0.14000   0.15844
 Alpha virt. eigenvalues --    0.16154   0.17705   0.19341   0.20644   0.23011
 Alpha virt. eigenvalues --    0.23155   0.24325   0.26898   0.27563   0.27685
 Alpha virt. eigenvalues --    0.28436   0.28987   0.29456   0.32878   0.34470
 Alpha virt. eigenvalues --    0.35827   0.37143   0.37441   0.38214   0.38784
 Alpha virt. eigenvalues --    0.38883   0.39778   0.40122   0.40604   0.41645
 Alpha virt. eigenvalues --    0.42095   0.42530   0.42664   0.44115   0.44468
 Alpha virt. eigenvalues --    0.44601   0.45384   0.45598   0.45806   0.45854
 Alpha virt. eigenvalues --    0.48376   0.49289   0.49469   0.50768   0.51611
 Alpha virt. eigenvalues --    0.53255   0.54814   0.56289   0.57146   0.58053
 Alpha virt. eigenvalues --    0.58699   0.59093   0.59418   0.59907   0.60359
 Alpha virt. eigenvalues --    0.60411   0.61633   0.62056   0.63624   0.63701
 Alpha virt. eigenvalues --    0.64647   0.66103   0.69589   0.70213   0.71869
 Alpha virt. eigenvalues --    0.72254   0.72781   0.73141   0.73662   0.74647
 Alpha virt. eigenvalues --    0.75797   0.76581   0.77499   0.78874   0.80150
 Alpha virt. eigenvalues --    0.80162   0.81842   0.83225   0.84213   0.84656
 Alpha virt. eigenvalues --    0.85760   0.85988   0.88325   0.88908   0.90284
 Alpha virt. eigenvalues --    0.90749   0.92271   0.93486   0.95972   0.96735
 Alpha virt. eigenvalues --    0.96753   0.98696   0.99409   1.00269   1.01682
 Alpha virt. eigenvalues --    1.02841   1.06057   1.06378   1.07540   1.08927
 Alpha virt. eigenvalues --    1.08966   1.09370   1.10726   1.11288   1.15743
 Alpha virt. eigenvalues --    1.18261   1.20258   1.21823   1.22319   1.24553
 Alpha virt. eigenvalues --    1.27961   1.28574   1.28963   1.34786   1.38699
 Alpha virt. eigenvalues --    1.40575   1.41488   1.42794   1.44201   1.44815
 Alpha virt. eigenvalues --    1.47146   1.47767   1.48942   1.52381   1.53863
 Alpha virt. eigenvalues --    1.53968   1.55929   1.56261   1.57906   1.58887
 Alpha virt. eigenvalues --    1.59642   1.60508   1.61021   1.61377   1.62167
 Alpha virt. eigenvalues --    1.63004   1.67110   1.69298   1.70367   1.71951
 Alpha virt. eigenvalues --    1.72872   1.73402   1.74565   1.75625   1.80208
 Alpha virt. eigenvalues --    1.80449   1.81565   1.82362   1.83269   1.83805
 Alpha virt. eigenvalues --    1.84229   1.86699   1.88786   1.89364   1.89440
 Alpha virt. eigenvalues --    1.89832   1.90823   1.90933   1.93661   1.93791
 Alpha virt. eigenvalues --    1.93884   1.96146   1.96192   1.98879   1.99490
 Alpha virt. eigenvalues --    2.00049   2.01111   2.02442   2.03435   2.06509
 Alpha virt. eigenvalues --    2.08045   2.10951   2.12006   2.14109   2.22431
 Alpha virt. eigenvalues --    2.25160   2.26306   2.26613   2.27653   2.32650
 Alpha virt. eigenvalues --    2.32800   2.32874   2.33279   2.34000   2.35759
 Alpha virt. eigenvalues --    2.37461   2.40468   2.47840   2.51992   2.53565
 Alpha virt. eigenvalues --    2.55488   2.56345   2.57262   2.59883   2.60227
 Alpha virt. eigenvalues --    2.61400   2.61610   2.62145   2.63709   2.64452
 Alpha virt. eigenvalues --    2.65123   2.65896   2.68911   2.68924   2.68999
 Alpha virt. eigenvalues --    2.70410   2.71688   2.73533   2.77368   2.79988
 Alpha virt. eigenvalues --    2.81351   2.81647   2.82207   2.83175   2.83583
 Alpha virt. eigenvalues --    2.87662   2.91705   2.92379   2.97020   3.03978
 Alpha virt. eigenvalues --    3.04299   3.07287   3.10371   3.15514   3.17190
 Alpha virt. eigenvalues --    3.23369   3.24266   3.29670   3.30263   3.31901
 Alpha virt. eigenvalues --    3.34398   3.38725   3.42628   3.44597   3.45777
 Alpha virt. eigenvalues --    3.50498   3.54556   3.55826   3.62654   3.75967
 Alpha virt. eigenvalues --    3.82196   3.98588   4.00437   4.01595   4.03790
 Alpha virt. eigenvalues --    4.11484   4.11840   4.19784   4.54946   4.79699
 Alpha virt. eigenvalues --    4.79826   7.81119   7.83950  17.19635  17.21066
 Alpha virt. eigenvalues --   17.43715  17.51189  17.52287  17.53379  23.35373
 Alpha virt. eigenvalues --   23.53811  23.68918  23.85655  23.85823  23.90157
 Alpha virt. eigenvalues --   23.92087  23.98132  24.01115  24.03741  24.07284
 Alpha virt. eigenvalues --   24.07407  24.14660  24.14770 188.92517 188.95387
          Condensed to atoms (all electrons):
              25         26         27         28         29         30
    25  S   15.370524   0.009509  -0.061459   0.005886  -0.000104   0.009384
    26  S    0.009509  15.370526  -0.000169  -0.000038   0.000327   0.002372
    27  C   -0.061459  -0.000169   4.861980   0.512596  -0.040614  -0.053517
    28  C    0.005886  -0.000038   0.512596   4.879619   0.492499  -0.051847
    29  C   -0.000104   0.000327  -0.040614   0.492499   4.878963   0.511503
    30  C    0.009384   0.002372  -0.053517  -0.051847   0.511503   4.875475
    31  C    0.002372   0.009384  -0.000001   0.000000  -0.000000  -0.000001
    32  C    0.000327  -0.000104   0.000000  -0.000000   0.000000  -0.000000
    33  C   -0.000038   0.005886  -0.000000   0.000000  -0.000000   0.000000
    34  C   -0.000169  -0.061459   0.000000  -0.000000   0.000000  -0.000001
    35  C    0.008663   0.306205   0.000033  -0.000002   0.000002  -0.000301
    36  C   -0.070640  -0.088261  -0.000510   0.000027  -0.000018   0.000095
    37  C    0.316758  -0.092102  -0.000489  -0.000022  -0.000613   0.011534
    38  C   -0.092102   0.316758   0.017259  -0.001042   0.013326  -0.089228
    39  C   -0.088261  -0.070640   0.006575  -0.049977  -0.029890   0.486125
    40  C    0.306205   0.008663   0.443281  -0.047948  -0.054766  -0.045304
    41  H   -0.003185   0.000023   0.419541  -0.037063   0.007347  -0.000568
    42  H    0.000110  -0.000002   0.007001  -0.041818   0.411183  -0.038059
    43  H   -0.000642   0.003289  -0.000908   0.007554  -0.039506   0.419763
    44  H    0.003289  -0.000642  -0.000003   0.000000  -0.000000   0.000000
    45  H   -0.000002   0.000110   0.000000  -0.000000  -0.000000   0.000000
    46  H   -0.000003  -0.000371  -0.000000   0.000000   0.000000   0.000000
    47  H    0.000023  -0.003185   0.000000  -0.000000   0.000000  -0.000000
    48  H   -0.000371  -0.000003  -0.041209   0.413909  -0.042679   0.007628
              31         32         33         34         35         36
    25  S    0.002372   0.000327  -0.000038  -0.000169   0.008663  -0.070640
    26  S    0.009384  -0.000104   0.005886  -0.061459   0.306205  -0.088261
    27  C   -0.000001   0.000000  -0.000000   0.000000   0.000033  -0.000510
    28  C    0.000000  -0.000000   0.000000  -0.000000  -0.000002   0.000027
    29  C   -0.000000   0.000000  -0.000000   0.000000   0.000002  -0.000018
    30  C   -0.000001  -0.000000   0.000000  -0.000001  -0.000301   0.000095
    31  C    4.875476   0.511503  -0.051847  -0.053517  -0.045303   0.486124
    32  C    0.511503   4.878964   0.492498  -0.040613  -0.054767  -0.029890
    33  C   -0.051847   0.492498   4.879620   0.512594  -0.047947  -0.049977
    34  C   -0.053517  -0.040613   0.512594   4.861981   0.443280   0.006576
    35  C   -0.045303  -0.054767  -0.047947   0.443280   5.390494   0.412306
    36  C    0.486124  -0.029890  -0.049977   0.006576   0.412306   4.949764
    37  C   -0.089228   0.013327  -0.001042   0.017259  -0.096659   0.392877
    38  C    0.011534  -0.000613  -0.000022  -0.000489  -0.086684  -0.014513
    39  C    0.000095  -0.000018   0.000027  -0.000510   0.003449   0.021086
    40  C   -0.000301   0.000002  -0.000002   0.000033  -0.000008   0.003449
    41  H   -0.000000   0.000000  -0.000000   0.000000   0.000001  -0.000009
    42  H    0.000000  -0.000000  -0.000000   0.000000  -0.000000  -0.000000
    43  H    0.000000  -0.000000   0.000000  -0.000003  -0.000107   0.000013
    44  H    0.419763  -0.039506   0.007554  -0.000908   0.008941  -0.045792
    45  H   -0.038059   0.411184  -0.041818   0.007001   0.000281   0.007543
    46  H    0.007628  -0.042679   0.413909  -0.041209   0.008883  -0.000338
    47  H   -0.000568   0.007347  -0.037064   0.419542  -0.047522   0.007228
    48  H    0.000000   0.000000   0.000000  -0.000000  -0.000000  -0.000000
              37         38         39         40         41         42
    25  S    0.316758  -0.092102  -0.088261   0.306205  -0.003185   0.000110
    26  S   -0.092102   0.316758  -0.070640   0.008663   0.000023  -0.000002
    27  C   -0.000489   0.017259   0.006575   0.443281   0.419541   0.007001
    28  C   -0.000022  -0.001042  -0.049977  -0.047948  -0.037063  -0.041818
    29  C   -0.000613   0.013326  -0.029890  -0.054766   0.007347   0.411183
    30  C    0.011534  -0.089228   0.486125  -0.045304  -0.000568  -0.038059
    31  C   -0.089228   0.011534   0.000095  -0.000301  -0.000000   0.000000
    32  C    0.013327  -0.000613  -0.000018   0.000002   0.000000  -0.000000
    33  C   -0.001042  -0.000022   0.000027  -0.000002  -0.000000  -0.000000
    34  C    0.017259  -0.000489  -0.000510   0.000033   0.000000   0.000000
    35  C   -0.096659  -0.086684   0.003449  -0.000008   0.000001  -0.000000
    36  C    0.392877  -0.014513   0.021086   0.003449  -0.000009  -0.000000
    37  C    5.459036   0.363446  -0.014513  -0.086685  -0.000118   0.000016
    38  C    0.363446   5.459034   0.392878  -0.096658  -0.000333  -0.000469
    39  C   -0.014513   0.392878   4.949762   0.412306   0.007227   0.007543
    40  C   -0.086685  -0.096658   0.412306   5.390494  -0.047522   0.000281
    41  H   -0.000118  -0.000333   0.007227  -0.047522   0.565102  -0.000321
    42  H    0.000016  -0.000469   0.007543   0.000281  -0.000321   0.571820
    43  H    0.000092  -0.012023  -0.045792   0.008941   0.000064  -0.007644
    44  H   -0.012023   0.000092   0.000013  -0.000107   0.000000   0.000000
    45  H   -0.000469   0.000016  -0.000000  -0.000000  -0.000000   0.000000
    46  H   -0.000002   0.000010  -0.000000  -0.000000   0.000000   0.000000
    47  H   -0.000333  -0.000118  -0.000009   0.000001   0.000000  -0.000000
    48  H    0.000010  -0.000002  -0.000338   0.008883  -0.007754  -0.007455
              43         44         45         46         47         48
    25  S   -0.000642   0.003289  -0.000002  -0.000003   0.000023  -0.000371
    26  S    0.003289  -0.000642   0.000110  -0.000371  -0.003185  -0.000003
    27  C   -0.000908  -0.000003   0.000000  -0.000000   0.000000  -0.041209
    28  C    0.007554   0.000000  -0.000000   0.000000  -0.000000   0.413909
    29  C   -0.039506  -0.000000  -0.000000   0.000000   0.000000  -0.042679
    30  C    0.419763   0.000000   0.000000   0.000000  -0.000000   0.007628
    31  C    0.000000   0.419763  -0.038059   0.007628  -0.000568   0.000000
    32  C   -0.000000  -0.039506   0.411184  -0.042679   0.007347   0.000000
    33  C    0.000000   0.007554  -0.041818   0.413909  -0.037064   0.000000
    34  C   -0.000003  -0.000908   0.007001  -0.041209   0.419542  -0.000000
    35  C   -0.000107   0.008941   0.000281   0.008883  -0.047522  -0.000000
    36  C    0.000013  -0.045792   0.007543  -0.000338   0.007228  -0.000000
    37  C    0.000092  -0.012023  -0.000469  -0.000002  -0.000333   0.000010
    38  C   -0.012023   0.000092   0.000016   0.000010  -0.000118  -0.000002
    39  C   -0.045792   0.000013  -0.000000  -0.000000  -0.000009  -0.000338
    40  C    0.008941  -0.000107  -0.000000  -0.000000   0.000001   0.008883
    41  H    0.000064   0.000000  -0.000000   0.000000   0.000000  -0.007754
    42  H   -0.007644   0.000000   0.000000   0.000000  -0.000000  -0.007455
    43  H    0.571387   0.000000   0.000000   0.000000   0.000000  -0.000308
    44  H    0.000000   0.571387  -0.007644  -0.000308   0.000064   0.000000
    45  H    0.000000  -0.007644   0.571820  -0.007455  -0.000321   0.000000
    46  H    0.000000  -0.000308  -0.007455   0.570655  -0.007754  -0.000000
    47  H    0.000000   0.000064  -0.000321  -0.007754   0.565102   0.000000
    48  H   -0.000308   0.000000   0.000000  -0.000000   0.000000   0.570655
 Mulliken charges:
               1
     1  S    0.000000
     2  S    0.000000
     3  C    0.000000
     4  C    0.000000
     5  C    0.000000
     6  C    0.000000
     7  C    0.000000
     8  C    0.000000
     9  C    0.000000
    10  C    0.000000
    11  C    0.000000
    12  C    0.000000
    13  C    0.000000
    14  C    0.000000
    15  C    0.000000
    16  C    0.000000
    17  H    0.000000
    18  H    0.000000
    19  H    0.000000
    20  H    0.000000
    21  H    0.000000
    22  H    0.000000
    23  H    0.000000
    24  H    0.000000
    25  S    0.283928
    26  S    0.283926
    27  C   -0.069389
    28  C   -0.082330
    29  C   -0.106962
    30  C   -0.045054
    31  C   -0.045054
    32  C   -0.106962
    33  C   -0.082331
    34  C   -0.069389
    35  C   -0.203237
    36  C    0.012861
    37  C   -0.180057
    38  C   -0.180057
    39  C    0.012862
    40  C   -0.203237
    41  H    0.097566
    42  H    0.097813
    43  H    0.095828
    44  H    0.095828
    45  H    0.097813
    46  H    0.099034
    47  H    0.097567
    48  H    0.099034
 Sum of Mulliken charges =  -0.00000
 Mulliken charges with hydrogens summed into heavy atoms:
               1
     1  S    0.000000
     2  S    0.000000
     3  C    0.000000
     4  C    0.000000
     5  C    0.000000
     6  C    0.000000
     7  C    0.000000
     8  C    0.000000
     9  C    0.000000
    10  C    0.000000
    11  C    0.000000
    12  C    0.000000
    13  C    0.000000
    14  C    0.000000
    15  C    0.000000
    16  C    0.000000
    25  S    0.283928
    26  S    0.283926
    27  C    0.028177
    28  C    0.016704
    29  C   -0.009149
    30  C    0.050773
    31  C    0.050773
    32  C   -0.009149
    33  C    0.016703
    34  C    0.028178
    35  C   -0.203237
    36  C    0.012861
    37  C   -0.180057
    38  C   -0.180057
    39  C    0.012862
    40  C   -0.203237
         Mulliken charges condensed to fragments:
      1      0.000000
      2     -0.000000
 Electronic spatial extent (au):  <R**2>=           7116.3918
 Charge=             -0.0000 electrons
 Dipole moment (field-independent basis, Debye):
    X=             -0.0000    Y=             -0.0000    Z=              0.0000  Tot=              0.0000
 Quadrupole moment (field-independent basis, Debye-Ang):
   XX=            -91.0185   YY=           -110.7163   ZZ=            -98.5413
   XY=             -7.1633   XZ=              0.2171   YZ=              2.9710
 Traceless Quadrupole moment (field-independent basis, Debye-Ang):
   XX=              9.0735   YY=            -10.6242   ZZ=              1.5507
   XY=             -7.1633   XZ=              0.2171   YZ=              2.9710
 Octapole moment (field-independent basis, Debye-Ang**2):
  XXX=            203.0721  YYY=            783.0226  ZZZ=            -57.8349  XYY=            116.1142
  XXY=            225.2260  XXZ=            -18.1294  XZZ=             73.3703  YZZ=            233.4681
  YYZ=            -35.6683  XYZ=             -4.1226
 Hexadecapole moment (field-independent basis, Debye-Ang**3):
 XXXX=          -4221.7733 YYYY=          -4375.5590 ZZZZ=          -1194.8121 XXXY=             -6.1994
 XXXZ=            152.3760 YYYX=             37.5319 YYYZ=             64.5553 ZZZX=            104.5749
 ZZZY=             29.7325 XXYY=          -1441.2354 XXZZ=           -895.4151 YYZZ=           -865.1868
 XXYZ=             30.4459 YYXZ=             41.8247 ZZXY=             14.3444
 N-N= 1.192162449365D+03 E-N=-5.527361719318D+03  KE= 1.331399857944D+03
 CPIOFr:  IOpCl= 0 IRwI=-1 IRwCP=  731 ICalc=  4 LCPTot=      762852 Len1MO=     1998050 IndFrg=    10753102
 CPIOFr:  IOpCl= 0 IRwI=-2 IRwCP=  731 ICalc=  0 LCPTot=      762852 Len1MO=     1998050 IndFrg=     2760902
 Counterpoise corrected energy =   -2669.806958019281
                   BSSE energy =       0.003429697192
              sum of fragments =   -2669.794632719014
           complexation energy =      -9.89 kcal/mole (raw)
           complexation energy =      -7.73 kcal/mole (corrected)
 1\1\GINC-CMDELL86\SP\RB3LYP\6-311G(d,p)\C28H16S4\OHNO\14-Jul-2021\0\\#
 b3lyp/6-311G** EmpiricalDispersion=GD3 counterpoise=2\\BTBT dimer b3ly
 p/6-311G**\\0,1\S,0,1.6203193263,0.9333401805,-0.9655543418\S,0,-1.620
 3215046,-0.9333388826,0.9655526073\C,0,0.7607010875,0.432046614,-3.596
 4890673\C,0,-0.1990145233,-0.0970811798,-4.456605144\C,0,-1.3358730484
 ,-0.7617409166,-3.9518894629\C,0,-1.5484008838,-0.8661903564,-2.581713
 2069\C,0,1.5483981093,0.866196593,2.581713372\C,0,1.3358706776,0.76174
 32744,3.9518892671\C,0,0.19901583,0.0970776341,4.4566055645\C,0,-0.760
 6973501,-0.4320550248,3.5964887592\C,0,-0.5418750743,-0.3467155574,2.2
 136722139\C,0,0.5874862401,0.3462927079,1.6917199634\C,0,0.5677107081,
 0.3035896045,0.2629304608\C,0,-0.5677107915,-0.3035871419,-0.262930279
 8\C,0,-0.5874867399,-0.3462921765,-1.6917195198\C,0,0.5418798052,0.346
 711325,-2.2136710574\H,0,1.6351619757,0.9441051055,-3.9892419249\H,0,-
 2.069015815,-1.1685664408,-4.6425298944\H,0,-2.4232632237,-1.382224776
 ,-2.1937042881\H,0,2.4232592385,1.3822352091,2.193705084\H,0,2.0690081
 682,1.1685767873,4.6425301772\H,0,0.0489377359,0.0282464127,5.53031334
 02\H,0,-1.6351576368,-0.9441151195,3.9892396112\H,0,-0.0489323111,-0.0
 282538749,-5.5303122329\S,0,1.3046806737,4.9383401805,-0.9655543418\S,
 0,4.5453215046,3.0716611174,0.9655526073\C,0,2.1642989125,4.437046614,
 -3.5964890673\C,0,3.1240145233,3.9079188202,-4.456605144\C,0,4.2608730
 484,3.2432590834,-3.9518894629\C,0,4.4734008838,3.1388096436,-2.581713
 2069\C,0,1.3766018907,4.871196593,2.581713372\C,0,1.5891293224,4.76674
 32744,3.9518892671\C,0,2.72598417,4.1020776341,4.4566055645\C,0,3.6856
 973501,3.5729449752,3.5964887592\C,0,3.4668750743,3.6582844426,2.21367
 22139\C,0,2.3375137599,4.3512927079,1.6917199634\C,0,2.3572892919,4.30
 85896045,0.2629304608\C,0,3.4927107915,3.7014128581,-0.2629302798\C,0,
 3.5124867399,3.6587078235,-1.6917195198\C,0,2.3831201948,4.351711325,-
 2.2136710574\H,0,1.2898380243,4.9491051055,-3.9892419249\H,0,4.9940158
 15,2.8364335592,-4.6425298944\H,0,5.3482632237,2.622775224,-2.19370428
 81\H,0,0.5017407615,5.3872352091,2.193705084\H,0,0.8559918318,5.173576
 7873,4.6425301772\H,0,2.8760622641,4.0332464127,5.5303133402\H,0,4.560
 1576368,3.0608848805,3.9892396112\H,0,2.9739323111,3.9767461251,-5.530
 3122329\\Version=ES64L-G16RevA.03\State=1-A\HF=-1334.8973174\RMSD=8.97
 6e-09\Dipole=0.1145063,0.3459516,0.0249638\Quadrupole=-2.5932718,-13.7
 13763,16.3070348,-1.1619821,-0.3502006,0.8491879\PG=C01 [X(C28H16S4)]\
 \@


 TIME IS IN FACT THE HERO OF THE PLOT. THE TIME
 WITH WHICH WE HAVE TO DEAL IS OF THE ORDER OF TWO
 BILLION YEARS...GIVEN SO MUCH TIME, THE "IMPOSSIBLE"
 BECOMES POSSIBLE, THE POSSIBLE PROBABLE, THE PROBABLE
 VIRTUALLY CERTAIN.  ONE HAS ONLY TO WAIT, TIME
 ITSELF PERFORMS THE MIRACLES.
 "ORIGIN OF LIFE" LECTURES, GEORGE WALD, 1954
 Job cpu time:       0 days  2 hours 22 minutes 10.3 seconds.
 Elapsed time:       0 days  0 hours  3 minutes 36.1 seconds.
 File lengths (MBytes):  RWF=    395 Int=      0 D2E=      0 Chk=    113 Scr=      2
 Normal termination of Gaussian 16 at Wed Jul 14 11:00:42 2021.
