 Entering Gaussian System, Link 0=g16
 Initial command:
 /home/g03/g16/l1.exe "/home/scr/21098/Gau-172669.inp" -scrdir="/home/scr/21098/"
 Entering Link 1 = /home/g03/g16/l1.exe PID=    172670.
  
 Copyright (c) 1988,1990,1992,1993,1995,1998,2003,2009,2016,
            Gaussian, Inc.  All Rights Reserved.
  
 This is part of the Gaussian(R) 16 program.  It is based on
 the Gaussian(R) 09 system (copyright 2009, Gaussian, Inc.),
 the Gaussian(R) 03 system (copyright 2003, Gaussian, Inc.),
 the Gaussian(R) 98 system (copyright 1998, Gaussian, Inc.),
 the Gaussian(R) 94 system (copyright 1995, Gaussian, Inc.),
 the Gaussian 92(TM) system (copyright 1992, Gaussian, Inc.),
 the Gaussian 90(TM) system (copyright 1990, Gaussian, Inc.),
 the Gaussian 88(TM) system (copyright 1988, Gaussian, Inc.),
 the Gaussian 86(TM) system (copyright 1986, Carnegie Mellon
 University), and the Gaussian 82(TM) system (copyright 1983,
 Carnegie Mellon University). Gaussian is a federally registered
 trademark of Gaussian, Inc.
  
 This software contains proprietary and confidential information,
 including trade secrets, belonging to Gaussian, Inc.
  
 This software is provided under written license and may be
 used, copied, transmitted, or stored only in accord with that
 written license.
  
 The following legend is applicable only to US Government
 contracts under FAR:
  
                    RESTRICTED RIGHTS LEGEND
  
 Use, reproduction and disclosure by the US Government is
 subject to restrictions as set forth in subparagraphs (a)
 and (c) of the Commercial Computer Software - Restricted
 Rights clause in FAR 52.227-19.
  
 Gaussian, Inc.
 340 Quinnipiac St., Bldg. 40, Wallingford CT 06492
  
  
 ---------------------------------------------------------------
 Warning -- This program may not be used in any manner that
 competes with the business of Gaussian, Inc. or will provide
 assistance to any competitor of Gaussian, Inc.  The licensee
 of this program is prohibited from giving any competitor of
 Gaussian, Inc. access to this program.  By using this program,
 the user acknowledges that Gaussian, Inc. is engaged in the
 business of creating and licensing software in the field of
 computational chemistry and represents and warrants to the
 licensee that it is not a competitor of Gaussian, Inc. and that
 it will not use this program in any manner prohibited above.
 ---------------------------------------------------------------
  

 Cite this work as:
 Gaussian 16, Revision A.03,
 M. J. Frisch, G. W. Trucks, H. B. Schlegel, G. E. Scuseria, 
 M. A. Robb, J. R. Cheeseman, G. Scalmani, V. Barone, 
 G. A. Petersson, H. Nakatsuji, X. Li, M. Caricato, A. V. Marenich, 
 J. Bloino, B. G. Janesko, R. Gomperts, B. Mennucci, H. P. Hratchian, 
 J. V. Ortiz, A. F. Izmaylov, J. L. Sonnenberg, D. Williams-Young, 
 F. Ding, F. Lipparini, F. Egidi, J. Goings, B. Peng, A. Petrone, 
 T. Henderson, D. Ranasinghe, V. G. Zakrzewski, J. Gao, N. Rega, 
 G. Zheng, W. Liang, M. Hada, M. Ehara, K. Toyota, R. Fukuda, 
 J. Hasegawa, M. Ishida, T. Nakajima, Y. Honda, O. Kitao, H. Nakai, 
 T. Vreven, K. Throssell, J. A. Montgomery, Jr., J. E. Peralta, 
 F. Ogliaro, M. J. Bearpark, J. J. Heyd, E. N. Brothers, K. N. Kudin, 
 V. N. Staroverov, T. A. Keith, R. Kobayashi, J. Normand, 
 K. Raghavachari, A. P. Rendell, J. C. Burant, S. S. Iyengar, 
 J. Tomasi, M. Cossi, J. M. Millam, M. Klene, C. Adamo, R. Cammi, 
 J. W. Ochterski, R. L. Martin, K. Morokuma, O. Farkas, 
 J. B. Foresman, and D. J. Fox, Gaussian, Inc., Wallingford CT, 2016.
 
 ******************************************
 Gaussian 16:  ES64L-G16RevA.03 25-Dec-2016
                14-Jul-2021 
 ******************************************
 %NProcShared=40
 Will use up to   40 processors via shared memory.
 %Mem=15GB
 ------------------------------------------------------
 #b3lyp/6-311G** EmpiricalDispersion=GD3 counterpoise=2
 ------------------------------------------------------
 1/38=1,62=2,172=1/1;
 2/12=2,17=6,18=5,40=1/2;
 1/38=1,53=2,62=2,63=1/22;
 3/5=4,6=6,7=101,11=2,25=1,30=1,74=-5,124=31/1,2,3;
 4//1;
 5/5=2,38=5/2;
 6/7=2,8=2,9=2,10=2,28=1/1;
 1/53=2,62=2,63=1/22;
 3/5=7,6=11,7=101,11=2,25=1,30=1,74=-5,82=7,124=31/1,2,3;
 4//1;
 5/5=2,38=5/2;
 6/7=2,8=2,9=2,10=2,28=1/1;
 1/53=2,62=2,63=1/22(-4);
 99/5=1,9=1/99;
 -------------------------
 BTBT dimer b3lyp/6-311G**
 -------------------------
 Symbolic Z-matrix:
 Charge =  0 Multiplicity = 1 in supermolecule
 Charge =  0 Multiplicity = 1 in fragment      1.
 Charge =  0 Multiplicity = 1 in fragment      2.
 S                     1.62032   0.93334  -0.96555    
 S                    -1.62032  -0.93334   0.96555    
 C                     0.7607    0.43205  -3.59649    
 C                    -0.19901  -0.09708  -4.45661    
 C                    -1.33587  -0.76174  -3.95189    
 C                    -1.5484   -0.86619  -2.58171    
 C                     1.5484    0.8662    2.58171    
 C                     1.33587   0.76174   3.95189    
 C                     0.19902   0.09708   4.45661    
 C                    -0.7607   -0.43206   3.59649    
 C                    -0.54188  -0.34672   2.21367    
 C                     0.58749   0.34629   1.69172    
 C                     0.56771   0.30359   0.26293    
 C                    -0.56771  -0.30359  -0.26293    
 C                    -0.58749  -0.34629  -1.69172    
 C                     0.54188   0.34671  -2.21367    
 H                     1.63516   0.94411  -3.98924    
 H                    -2.06902  -1.16857  -4.64253    
 H                    -2.42326  -1.38222  -2.1937     
 H                     2.42326   1.38224   2.19371    
 H                     2.06901   1.16858   4.64253    
 H                     0.04894   0.02825   5.53031    
 H                    -1.63516  -0.94412   3.98924    
 H                    -0.04893  -0.02825  -5.53031    
 S                    -4.54532   4.94834  -0.96555    
 S                    -1.30468   3.08166   0.96555    
 C                    -3.6857    4.44705  -3.59649    
 C                    -2.72599   3.91792  -4.45661    
 C                    -1.58913   3.25326  -3.95189    
 C                    -1.3766    3.14881  -2.58171    
 C                    -4.4734    4.8812    2.58171    
 C                    -4.26087   4.77674   3.95189    
 C                    -3.12402   4.11208   4.45661    
 C                    -2.1643    3.58294   3.59649    
 C                    -2.38312   3.66828   2.21367    
 C                    -3.51249   4.36129   1.69172    
 C                    -3.49271   4.31859   0.26293    
 C                    -2.35729   3.71141  -0.26293    
 C                    -2.33751   3.66871  -1.69172    
 C                    -3.46688   4.36171  -2.21367    
 H                    -4.56016   4.95911  -3.98924    
 H                    -0.85598   2.84643  -4.64253    
 H                    -0.50174   2.63278  -2.1937     
 H                    -5.34826   5.39724   2.19371    
 H                    -4.99401   5.18358   4.64253    
 H                    -2.97394   4.04325   5.53031    
 H                    -1.28984   3.07088   3.98924    
 H                    -2.87607   3.98675  -5.53031    
 
                          Input orientation:                          
 ---------------------------------------------------------------------
 Center     Atomic      Atomic             Coordinates (Angstroms)
 Number     Number       Type             X           Y           Z
 ---------------------------------------------------------------------
      1         16           0        1.620319    0.933340   -0.965554
      2         16           0       -1.620322   -0.933339    0.965553
      3          6           0        0.760701    0.432047   -3.596489
      4          6           0       -0.199015   -0.097081   -4.456605
      5          6           0       -1.335873   -0.761741   -3.951889
      6          6           0       -1.548401   -0.866190   -2.581713
      7          6           0        1.548398    0.866197    2.581713
      8          6           0        1.335871    0.761743    3.951889
      9          6           0        0.199016    0.097078    4.456606
     10          6           0       -0.760697   -0.432055    3.596489
     11          6           0       -0.541875   -0.346716    2.213672
     12          6           0        0.587486    0.346293    1.691720
     13          6           0        0.567711    0.303590    0.262930
     14          6           0       -0.567711   -0.303587   -0.262930
     15          6           0       -0.587487   -0.346292   -1.691720
     16          6           0        0.541880    0.346711   -2.213671
     17          1           0        1.635162    0.944105   -3.989242
     18          1           0       -2.069016   -1.168566   -4.642530
     19          1           0       -2.423263   -1.382225   -2.193704
     20          1           0        2.423259    1.382235    2.193705
     21          1           0        2.069008    1.168577    4.642530
     22          1           0        0.048938    0.028246    5.530313
     23          1           0       -1.635158   -0.944115    3.989240
     24          1           0       -0.048932   -0.028254   -5.530312
     25         16           0       -4.545319    4.948340   -0.965554
     26         16           0       -1.304678    3.081661    0.965553
     27          6           0       -3.685701    4.447047   -3.596489
     28          6           0       -2.725985    3.917919   -4.456605
     29          6           0       -1.589127    3.253259   -3.951889
     30          6           0       -1.376599    3.148810   -2.581713
     31          6           0       -4.473398    4.881197    2.581713
     32          6           0       -4.260871    4.776743    3.951889
     33          6           0       -3.124016    4.112078    4.456606
     34          6           0       -2.164303    3.582945    3.596489
     35          6           0       -2.383125    3.668284    2.213672
     36          6           0       -3.512486    4.361293    1.691720
     37          6           0       -3.492711    4.318590    0.262930
     38          6           0       -2.357289    3.711413   -0.262930
     39          6           0       -2.337513    3.668708   -1.691720
     40          6           0       -3.466880    4.361711   -2.213671
     41          1           0       -4.560162    4.959105   -3.989242
     42          1           0       -0.855984    2.846434   -4.642530
     43          1           0       -0.501737    2.632775   -2.193704
     44          1           0       -5.348259    5.397235    2.193705
     45          1           0       -4.994008    5.183577    4.642530
     46          1           0       -2.973938    4.043246    5.530313
     47          1           0       -1.289842    3.070885    3.989240
     48          1           0       -2.876068    3.986746   -5.530312
 ---------------------------------------------------------------------
                    Distance matrix (angstroms):
                    1          2          3          4          5
     1  S    0.000000
     2  S    4.208969   0.000000
     3  C    2.812838   5.324075   0.000000
     4  C    4.069297   5.667383   1.393137   0.000000
     5  C    4.531067   4.928650   2.438660   1.410304   0.000000
     6  C    3.986360   3.548630   2.836748   2.434665   1.390489
     7  C    3.548632   3.986363   6.243327   7.315687   7.325105
     8  C    4.928652   4.531069   7.577436   8.590473   8.481093
     9  C    5.667385   4.069299   8.079606   8.924206   8.590474
    10  C    5.324076   2.812839   7.402719   8.079605   7.577436
    11  C    4.052297   1.750707   6.005094   6.683747   6.230315
    12  C    2.910752   2.653147   5.291740   6.214263   6.064435
    13  C    1.736014   2.609819   3.866376   4.798169   4.745868
    14  C    2.609817   1.736015   3.663120   4.214913   3.795840
    15  C    2.653146   2.910750   2.459994   2.803143   2.416826
    16  C    1.750703   4.052296   1.402623   2.403462   2.788553
    17  H    3.023743   6.218759   1.086803   2.160255   3.426128
    18  H    5.616881   5.630919   3.415181   2.163228   1.086273
    19  H    4.818792   3.290459   3.923903   3.423390   2.158387
    20  H    3.290462   4.818795   6.098632   7.300091   7.516385
    21  H    5.630921   5.616882   8.374699   9.462562   9.443696
    22  H    6.744237   4.954605   9.163416   9.990782   9.615298
    23  H    6.218758   3.023743   8.073242   8.608848   7.948859
    24  H    4.954602   6.744235   2.146405   1.086328   2.164633
    25  S    7.357671   6.846819   7.447992   7.518915   7.198873
    26  S    4.110969   4.027388   5.665552   6.381747   6.241310
    27  C    6.886349   7.350277   5.990886   5.791881   5.725336
    28  C    6.323410   7.359143   5.004806   4.744029   4.907786
    29  C    4.959916   6.458313   3.688799   3.662230   4.022979
    30  C    4.062240   5.413542   3.602586   3.929088   4.143845
    31  C    8.080970   6.675391   9.239097   9.622449   9.185574
    32  C    8.575628   6.963889  10.053387  10.533547  10.084649
    33  C    7.874827   6.317023   9.668815  10.281925   9.882022
    34  C    6.492766   5.254956   8.379901   9.069579   8.748749
    35  C    5.797842   4.828520   7.356280   7.964981   7.663942
    36  C    6.719945   5.669280   7.852659   8.286018   7.926755
    37  C    6.253972   5.619811   6.934829   7.254006   6.944524
    38  C    4.902320   4.860659   5.620384   6.062152   5.887344
    39  C    4.865593   5.362303   4.868578   5.137990   5.073512
    40  C    6.260281   6.446301   5.935225   5.965780   5.814839
    41  H    7.971689   8.240968   6.997149   6.693508   6.567002
    42  H    4.828266   6.805989   3.088226   3.021664   3.704889
    43  H    2.983212   4.893803   2.899097   3.558718   3.912766
    44  H    8.858237   7.448627   9.772351  10.046336   9.581261
    45  H    9.657352   7.894212  11.116436  11.561642  11.072163
    46  H    8.542541   6.887359  10.501753  11.161588  10.755618
    47  H    6.130915   5.028490   8.289239   9.086155   8.817747
    48  H    7.097732   8.245022   5.440740   4.999711   5.235623
                    6          7          8          9         10
     6  C    0.000000
     7  C    6.265166   0.000000
     8  C    7.325104   1.390489   0.000000
     9  C    7.315687   2.434666   1.410304   0.000000
    10  C    6.243327   2.836750   2.438660   1.393137   0.000000
    11  C    4.927339   2.444556   2.788550   2.403460   1.402622
    12  C    4.928931   1.409163   2.416825   2.803143   2.459994
    13  C    3.733405   2.579734   3.795839   4.214913   3.663121
    14  C    2.579734   3.733404   4.745867   4.798168   3.866376
    15  C    1.409162   4.928931   6.064435   6.214263   5.291739
    16  C    2.444557   4.927338   6.230314   6.683746   6.005093
    17  H    3.923440   6.571990   7.948861   8.608851   8.073244
    18  H    2.146960   8.331605   9.443696   9.462562   8.374698
    19  H    1.087302   6.605612   7.516383   7.300089   6.098630
    20  H    6.605613   1.087303   2.158387   3.423391   3.923905
    21  H    8.331604   2.146959   1.086273   2.163227   3.415181
    22  H    8.316038   3.412445   2.164633   1.086328   2.146407
    23  H    6.571988   3.923441   3.426129   2.160256   1.086802
    24  H    3.412445   8.316037   9.615296   9.990781   9.163414
    25  S    6.738120   8.147417   8.734829   8.685809   8.005264
    26  S    5.313005   3.957310   4.612236   4.832834   4.423114
    27  C    5.816211   8.853726   9.786504   9.943118   9.170617
    28  C    5.271587   8.781873   9.857124  10.129155   9.361461
    29  C    4.341533   7.630865   8.788230   9.157605   8.440726
    30  C    4.018674   6.358216   7.466160   7.831575   7.167434
    31  C    8.261298   7.237559   7.252233   6.945104   6.560835
    32  C    9.049207   7.135640   6.887942   6.484180   6.285627
    33  C    8.763769   5.990193   5.600899   5.211791   5.193671
    34  C    7.638345   4.711119   4.509623   4.298412   4.253273
    35  C    6.652364   4.841903   5.029941   4.944868   4.621389
    36  C    7.031816   6.214526   6.447611   6.293121   5.846081
    37  C    6.225294   6.535178   7.040935   7.002637   6.414447
    38  C    5.194758   5.607285   6.332826   6.470868   5.883243
    39  C    4.688293   6.420016   7.334474   7.549333   6.875155
    40  C    5.580947   7.769643   8.604668   8.724591   8.003848
    41  H    6.707154   9.861230  10.744422  10.845341  10.052057
    42  H    4.302323   7.867152   9.111213   9.563799   8.867863
    43  H    3.672712   5.488940   6.681757   7.151744   6.556415
    44  H    8.744944   8.261038   8.322054   7.999041   7.549447
    45  H   10.033025   8.104926   7.752223   7.271488   7.109884
    46  H    9.588519   6.264137   5.642175   5.176170   5.354104
    47  H    7.664518   3.859714   3.496841   3.358372   3.564384
    48  H    5.831632   9.752881  10.865230  11.150076  10.358527
                   11         12         13         14         15
    11  C    0.000000
    12  C    1.424132   0.000000
    13  C    2.336551   1.429564   0.000000
    14  C    2.477113   2.361669   1.390818   0.000000
    15  C    3.905658   3.647999   2.361670   1.429564   0.000000
    16  C    4.610503   3.905657   2.477112   2.336551   1.424133
    17  H    6.699392   5.807610   4.430653   4.504973   3.447304
    18  H    7.072136   7.033813   5.760478   4.709883   3.402697
    19  H    4.902741   5.210461   4.221724   2.886940   2.166846
    20  H    3.432447   2.166848   2.886941   4.221724   5.210463
    21  H    3.874555   3.402696   4.709882   5.760477   7.033812
    22  H    3.389656   3.889214   5.300025   5.835413   7.259688
    23  H    2.169053   3.447303   4.504972   4.430651   5.807607
    24  H    7.766190   7.259688   5.835412   5.300024   3.889214
    25  S    7.360208   7.388210   7.016121   6.625541   6.650179
    26  S    3.727390   3.404386   3.423040   3.675894   4.396171
    27  C    8.162216   7.939866   7.082010   6.588095   6.016908
    28  C    8.212798   7.844585   6.796015   6.329784   5.513734
    29  C    7.216003   6.711067   5.578280   5.225214   4.366740
    30  C    5.992594   5.474848   4.468514   4.236756   3.691954
    31  C    6.551595   6.853466   7.193331   7.087198   7.790326
    32  C    6.565223   6.945777   7.545377   7.563986   8.461062
    33  C    5.619523   5.966655   6.761682   6.950310   8.007056
    34  C    4.470647   4.655793   5.415781   5.705204   6.774245
    35  C    4.417061   4.486936   4.882007   5.020463   5.881601
    36  C    5.591271   5.738467   5.929115   5.852646   6.493431
    37  C    5.854733   5.870996   5.710276   5.495150   5.832847
    38  C    5.088978   4.880204   4.521660   4.395773   4.651732
    39  C    5.882179   5.571510   4.856439   4.577419   4.379819
    40  C    7.094104   6.914734   6.235369   5.828858   5.543341
    41  H    9.098050   8.947047   8.127107   7.584260   7.014841
    42  H    7.569833   6.961109   5.705831   5.402465   4.355786
    43  H    5.320145   4.637988   3.550194   3.514892   3.022281
    44  H    7.489639   7.810063   8.041879   7.835054   8.411277
    45  H    7.503664   7.953595   8.598133   8.588633   9.493134
    46  H    6.015547   6.409837   7.367064   7.631944   8.781854
    47  H    3.923275   4.028196   4.999381   5.476266   6.666611
    48  H    9.175873   8.798117   7.680294   7.175011   6.224758
                   16         17         18         19         20
    16  C    0.000000
    17  H    2.169054   0.000000
    18  H    3.874558   4.314058   0.000000
    19  H    3.432447   5.010647   2.483523   0.000000
    20  H    4.902740   6.248351   8.568619   7.097914   0.000000
    21  H    7.072134   8.645583  10.430619   8.568617   2.483523
    22  H    7.766190   9.694165  10.459676   8.231747   4.313194
    23  H    6.699390   8.827034   8.645580   6.248347   5.010648
    24  H    3.389656   2.481240   2.483789   4.313193   8.231747
    25  S    6.972258   7.960838   7.554388   6.788779   8.441511
    26  S    4.582269   6.145063   7.078081   5.581972   4.277140
    27  C    6.049576   6.382510   5.936580   6.127149   8.957612
    28  C    5.335093   5.299208   5.132106   5.770952   8.784705
    29  C    4.001326   3.966059   4.501091   5.027396   7.574187
    30  C    3.415812   3.989056   4.833854   4.666512   6.353293
    31  C    8.289166   9.797584   9.724730   8.138680   7.743201
    32  C    8.983637  10.607256  10.677780   8.892582   7.700097
    33  C    8.491723  10.198930  10.573197   8.654769   6.583693
    34  C    7.180152   8.884971   9.511434   7.631927   5.277940
    35  C    6.260181   7.876797   8.396505   6.703299   5.322382
    36  C    6.914248   8.393377   8.531452   7.019325   6.660319
    37  C    6.179587   7.467476   7.496621   6.299052   6.881044
    38  C    4.850957   6.122341   6.563398   5.447695   5.857796
    39  C    4.427076   5.337061   5.672618   5.076540   6.556633
    40  C    5.673657   6.392458   6.199786   5.838008   7.937001
    41  H    7.103355   7.382565   6.646875   6.928402   9.989545
    42  H    3.755262   3.201788   4.194243   5.131731   7.722138
    43  H    2.513090   3.262192   4.785740   4.451122   5.419300
    44  H    8.923368  10.335733  10.029820   8.588716   8.747384
    45  H   10.052304  11.680176  11.624012   9.821028   8.686933
    46  H    9.273329  11.021362  11.465976   9.455127   6.880674
    47  H    7.018007   8.759852   9.648187   7.703481   4.456748
    48  H    5.994358   5.655418   5.293084   6.337494   9.722489
                   21         22         23         24         25
    21  H    0.000000
    22  H    2.483787   0.000000
    23  H    4.314058   2.481244   0.000000
    24  H   10.459675  11.061203   9.694162   0.000000
    25  S    9.459733   9.354722   8.230435   8.113014   0.000000
    26  S    5.344326   5.656205   5.045669   7.310590   4.208969
    27  C   10.571021  10.806102   9.529566   6.082275   2.812838
    28  C   10.646366  11.071056   9.806201   4.887918   4.069297
    29  C    9.570366  10.148701   8.982294   3.953725   4.531067
    30  C    8.245194   8.807670   7.745728   4.533284   3.986360
    31  C    7.799589   7.259262   6.631063  10.463439   3.548632
    32  C    7.318690   6.604097   6.294759  11.434184   4.928652
    33  C    5.972124   5.281871   5.291523  11.239974   5.667385
    34  C    4.984405   4.612374   4.574770  10.040620   5.324076
    35  C    5.654147   5.492259   4.998632   8.892814   4.052297
    36  C    7.074871   6.796604   6.078677   9.133569   2.910752
    37  C    7.748302   7.661308   6.710584   8.019746   1.736014
    38  C    7.079666   7.274429   6.346366   6.859951   2.609817
    39  C    8.111153   8.432429   7.351512   5.799993   2.653146
    40  C    9.372815   9.545113   8.365590   6.477211   1.750703
    41  H   11.524821  11.669580  10.346972   6.899264   3.023743
    42  H    9.878417  10.594706   9.459536   3.115015   5.616881
    43  H    7.448940   8.169900   7.232398   4.291743   4.818792
    44  H    8.882238   8.311963   7.564641  10.824936   3.290462
    45  H    8.124434   7.266147   7.018353  12.454063   5.630921
    46  H    5.872239   5.025734   5.388972  12.143731   6.744237
    47  H    3.915028   3.663999   4.029822  10.087933   6.218758
    48  H   11.656868  12.106313  10.792364   4.910491   4.954602
                   26         27         28         29         30
    26  S    0.000000
    27  C    5.324075   0.000000
    28  C    5.667383   1.393137   0.000000
    29  C    4.928650   2.438660   1.410304   0.000000
    30  C    3.548630   2.836748   2.434665   1.390489   0.000000
    31  C    3.986363   6.243327   7.315687   7.325105   6.265166
    32  C    4.531069   7.577436   8.590473   8.481093   7.325104
    33  C    4.069299   8.079606   8.924206   8.590474   7.315687
    34  C    2.812839   7.402719   8.079605   7.577436   6.243327
    35  C    1.750707   6.005094   6.683747   6.230315   4.927339
    36  C    2.653147   5.291740   6.214263   6.064435   4.928931
    37  C    2.609819   3.866376   4.798169   4.745868   3.733405
    38  C    1.736015   3.663120   4.214913   3.795840   2.579734
    39  C    2.910750   2.459994   2.803143   2.416826   1.409162
    40  C    4.052296   1.402623   2.403462   2.788553   2.444557
    41  H    6.218759   1.086803   2.160255   3.426128   3.923440
    42  H    5.630919   3.415181   2.163228   1.086273   2.146960
    43  H    3.290459   3.923903   3.423390   2.158387   1.087302
    44  H    4.818795   6.098632   7.300091   7.516385   6.605613
    45  H    5.616882   8.374699   9.462562   9.443696   8.331604
    46  H    4.954605   9.163416   9.990782   9.615298   8.316038
    47  H    3.023743   8.073242   8.608848   7.948859   6.571988
    48  H    6.744235   2.146405   1.086328   2.164633   3.412445
                   31         32         33         34         35
    31  C    0.000000
    32  C    1.390489   0.000000
    33  C    2.434666   1.410304   0.000000
    34  C    2.836750   2.438660   1.393137   0.000000
    35  C    2.444556   2.788550   2.403460   1.402622   0.000000
    36  C    1.409163   2.416825   2.803143   2.459994   1.424132
    37  C    2.579734   3.795839   4.214913   3.663121   2.336551
    38  C    3.733404   4.745867   4.798168   3.866376   2.477113
    39  C    4.928931   6.064435   6.214263   5.291739   3.905658
    40  C    4.927338   6.230314   6.683746   6.005093   4.610503
    41  H    6.571990   7.948861   8.608851   8.073244   6.699392
    42  H    8.331605   9.443696   9.462562   8.374698   7.072136
    43  H    6.605612   7.516383   7.300089   6.098630   4.902741
    44  H    1.087303   2.158387   3.423391   3.923905   3.432447
    45  H    2.146959   1.086273   2.163227   3.415181   3.874555
    46  H    3.412445   2.164633   1.086328   2.146407   3.389656
    47  H    3.923441   3.426129   2.160256   1.086802   2.169053
    48  H    8.316037   9.615296   9.990781   9.163414   7.766190
                   36         37         38         39         40
    36  C    0.000000
    37  C    1.429564   0.000000
    38  C    2.361669   1.390818   0.000000
    39  C    3.647999   2.361670   1.429564   0.000000
    40  C    3.905657   2.477112   2.336551   1.424133   0.000000
    41  H    5.807610   4.430653   4.504973   3.447304   2.169054
    42  H    7.033813   5.760478   4.709883   3.402697   3.874558
    43  H    5.210461   4.221724   2.886940   2.166846   3.432447
    44  H    2.166848   2.886941   4.221724   5.210463   4.902740
    45  H    3.402696   4.709882   5.760477   7.033812   7.072134
    46  H    3.889214   5.300025   5.835413   7.259688   7.766190
    47  H    3.447303   4.504972   4.430651   5.807607   6.699390
    48  H    7.259688   5.835412   5.300024   3.889214   3.389656
                   41         42         43         44         45
    41  H    0.000000
    42  H    4.314058   0.000000
    43  H    5.010647   2.483523   0.000000
    44  H    6.248351   8.568619   7.097914   0.000000
    45  H    8.645583  10.430619   8.568617   2.483523   0.000000
    46  H    9.694165  10.459676   8.231747   4.313194   2.483787
    47  H    8.827034   8.645580   6.248347   5.010648   4.314058
    48  H    2.481240   2.483789   4.313193   8.231747  10.459675
                   46         47         48
    46  H    0.000000
    47  H    2.481244   0.000000
    48  H   11.061203   9.694162   0.000000
 Stoichiometry    C28H16S4
 Framework group  C1[X(C28H16S4)]
 Deg. of freedom   138
 Full point group                 C1      NOp   1
 Largest Abelian subgroup         C1      NOp   1
 Largest concise Abelian subgroup C1      NOp   1
                         Standard orientation:                         
 ---------------------------------------------------------------------
 Center     Atomic      Atomic             Coordinates (Angstroms)
 Number     Number       Type             X           Y           Z
 ---------------------------------------------------------------------
      1         16           0       -1.749562   -2.399358   -1.664933
      2         16           0        0.216802   -2.309572    2.055385
      3          6           0       -4.219293   -1.412949   -0.748701
      4          6           0       -4.993206   -0.928796    0.303670
      5          6           0       -4.470128   -0.851192    1.611082
      6          6           0       -3.153855   -1.214974    1.872900
      7          6           0        1.621099   -3.493953   -1.482451
      8          6           0        2.937370   -3.857737   -1.220630
      9          6           0        3.460447   -3.780140    0.086783
     10          6           0        2.686531   -3.295992    1.139155
     11          6           0        1.352335   -2.945971    0.884686
     12          6           0        0.821276   -2.993240   -0.435880
     13          6           0       -0.544782   -2.571979   -0.427010
     14          6           0       -0.987976   -2.136953    0.817460
     15          6           0       -2.354034   -1.715692    0.826331
     16          6           0       -2.885095   -1.762968   -0.494235
     17          1           0       -4.625748   -1.470667   -1.754983
     18          1           0       -5.093928   -0.472886    2.415909
     19          1           0       -2.752827   -1.158400    2.881960
     20          1           0        1.220072   -3.550523   -2.491512
     21          1           0        3.561174   -4.236035   -2.025459
     22          1           0        4.492135   -4.066147    0.270983
     23          1           0        3.092984   -3.238275    2.145437
     24          1           0       -6.024895   -0.642795    0.119469
     25         16           0        0.376380    4.333461    0.405054
     26         16           0        1.156378    0.375472   -0.795508
     27          6           0       -2.408049    4.246150    0.015965
     28          6           0       -3.533304    3.531554   -0.388983
     29          6           0       -3.426419    2.189146   -0.807880
     30          6           0       -2.187950    1.559904   -0.868783
     31          6           0        3.720711    3.149032    0.478325
     32          6           0        4.959178    2.519787    0.417425
     33          6           0        5.066063    1.177377   -0.001465
     34          6           0        3.940806    0.462779   -0.406408
     35          6           0        2.686719    1.086124   -0.328597
     36          6           0        2.569108    2.449502    0.065761
     37          6           0        1.195810    2.846062    0.044601
     38          6           0        0.336950    1.862872   -0.435054
     39          6           0       -1.036348    2.259431   -0.456213
     40          6           0       -1.153959    3.622809   -0.061848
     41          1           0       -2.494372    5.280692    0.337543
     42          1           0       -4.318615    1.651709   -1.116322
     43          1           0       -2.107200    0.523717   -1.188192
     44          1           0        3.639962    4.185221    0.797731
     45          1           0        5.851376    3.057226    0.725858
     46          1           0        6.042809    0.703912   -0.045157
     47          1           0        4.027128   -0.571763   -0.727985
     48          1           0       -4.510050    4.005018   -0.345286
 ---------------------------------------------------------------------
 Rotational constants (GHZ):           0.1330582           0.1273299           0.0745026
 Counterpoise: doing full-system calculation.
 Standard basis: 6-311G(d,p) (5D, 7F)
 There are   736 symmetry adapted cartesian basis functions of A   symmetry.
 There are   704 symmetry adapted basis functions of A   symmetry.
   704 basis functions,  1208 primitive gaussians,   736 cartesian basis functions
   124 alpha electrons      124 beta electrons
       nuclear repulsion energy      3751.0685693584 Hartrees.
 NAtoms=   48 NActive=   48 NUniq=   48 SFac= 1.00D+00 NAtFMM=   60 NAOKFM=F Big=F
 Integral buffers will be    131072 words long.
 Raffenetti 2 integral format.
 Two-electron integral symmetry is turned on.
 Nuclear repulsion after empirical dispersion term =     3751.0071563972 Hartrees.
 One-electron integrals computed using PRISM.
 NBasis=   704 RedAO= T EigKep=  1.61D-04  NBF=   704
 NBsUse=   704 1.00D-06 EigRej= -1.00D+00 NBFU=   704
 ExpMin= 7.71D-02 ExpMax= 9.34D+04 ExpMxC= 3.17D+03 IAcc=3 IRadAn=         5 AccDes= 0.00D+00
 Harris functional with IExCor=  402 and IRadAn=       5 diagonalized for initial guess.
 HarFok:  IExCor=  402 AccDes= 0.00D+00 IRadAn=         5 IDoV= 1 UseB2=F ITyADJ=14
 ICtDFT=  3500011 ScaDFX=  1.000000  1.000000  1.000000  1.000000
 FoFCou: FMM=F IPFlag=           0 FMFlag=      100000 FMFlg1=           0
         NFxFlg=           0 DoJE=T BraDBF=F KetDBF=T FulRan=T
         wScrn=  0.000000 ICntrl=       500 IOpCl=  0 I1Cent=   200000004 NGrid=           0
         NMat0=    1 NMatS0=      1 NMatT0=    0 NMatD0=    1 NMtDS0=    0 NMtDT0=    0
 Petite list used in FoFCou.
 Requested convergence on RMS density matrix=1.00D-08 within 128 cycles.
 Requested convergence on MAX density matrix=1.00D-06.
 Requested convergence on             energy=1.00D-06.
 No special actions if energy rises.
 Integral accuracy reduced to 1.0D-05 until final iterations.
 Initial convergence to 1.0D-05 achieved.  Increase integral accuracy.
 SCF Done:  E(RB3LYP) =  -2669.81039948     A.U. after   15 cycles
            NFock= 15  Conv=0.75D-08     -V/T= 2.0026

 **********************************************************************

            Population analysis using the SCF density.

 **********************************************************************

 Orbital symmetries:
       Occupied  (A) (A) (A) (A) (A) (A) (A) (A) (A) (A) (A) (A)
                 (A) (A) (A) (A) (A) (A) (A) (A) (A) (A) (A) (A)
                 (A) (A) (A) (A) (A) (A) (A) (A) (A) (A) (A) (A)
                 (A) (A) (A) (A) (A) (A) (A) (A) (A) (A) (A) (A)
                 (A) (A) (A) (A) (A) (A) (A) (A) (A) (A) (A) (A)
                 (A) (A) (A) (A) (A) (A) (A) (A) (A) (A) (A) (A)
                 (A) (A) (A) (A) (A) (A) (A) (A) (A) (A) (A) (A)
                 (A) (A) (A) (A) (A) (A) (A) (A) (A) (A) (A) (A)
                 (A) (A) (A) (A) (A) (A) (A) (A) (A) (A) (A) (A)
                 (A) (A) (A) (A) (A) (A) (A) (A) (A) (A) (A) (A)
                 (A) (A) (A) (A)
       Virtual   (A) (A) (A) (A) (A) (A) (A) (A) (A) (A) (A) (A)
                 (A) (A) (A) (A) (A) (A) (A) (A) (A) (A) (A) (A)
                 (A) (A) (A) (A) (A) (A) (A) (A) (A) (A) (A) (A)
                 (A) (A) (A) (A) (A) (A) (A) (A) (A) (A) (A) (A)
                 (A) (A) (A) (A) (A) (A) (A) (A) (A) (A) (A) (A)
                 (A) (A) (A) (A) (A) (A) (A) (A) (A) (A) (A) (A)
                 (A) (A) (A) (A) (A) (A) (A) (A) (A) (A) (A) (A)
                 (A) (A) (A) (A) (A) (A) (A) (A) (A) (A) (A) (A)
                 (A) (A) (A) (A) (A) (A) (A) (A) (A) (A) (A) (A)
                 (A) (A) (A) (A) (A) (A) (A) (A) (A) (A) (A) (A)
                 (A) (A) (A) (A) (A) (A) (A) (A) (A) (A) (A) (A)
                 (A) (A) (A) (A) (A) (A) (A) (A) (A) (A) (A) (A)
                 (A) (A) (A) (A) (A) (A) (A) (A) (A) (A) (A) (A)
                 (A) (A) (A) (A) (A) (A) (A) (A) (A) (A) (A) (A)
                 (A) (A) (A) (A) (A) (A) (A) (A) (A) (A) (A) (A)
                 (A) (A) (A) (A) (A) (A) (A) (A) (A) (A) (A) (A)
                 (A) (A) (A) (A) (A) (A) (A) (A) (A) (A) (A) (A)
                 (A) (A) (A) (A) (A) (A) (A) (A) (A) (A) (A) (A)
                 (A) (A) (A) (A) (A) (A) (A) (A) (A) (A) (A) (A)
                 (A) (A) (A) (A) (A) (A) (A) (A) (A) (A) (A) (A)
                 (A) (A) (A) (A) (A) (A) (A) (A) (A) (A) (A) (A)
                 (A) (A) (A) (A) (A) (A) (A) (A) (A) (A) (A) (A)
                 (A) (A) (A) (A) (A) (A) (A) (A) (A) (A) (A) (A)
                 (A) (A) (A) (A) (A) (A) (A) (A) (A) (A) (A) (A)
                 (A) (A) (A) (A) (A) (A) (A) (A) (A) (A) (A) (A)
                 (A) (A) (A) (A) (A) (A) (A) (A) (A) (A) (A) (A)
                 (A) (A) (A) (A) (A) (A) (A) (A) (A) (A) (A) (A)
                 (A) (A) (A) (A) (A) (A) (A) (A) (A) (A) (A) (A)
                 (A) (A) (A) (A) (A) (A) (A) (A) (A) (A) (A) (A)
                 (A) (A) (A) (A) (A) (A) (A) (A) (A) (A) (A) (A)
                 (A) (A) (A) (A) (A) (A) (A) (A) (A) (A) (A) (A)
                 (A) (A) (A) (A) (A) (A) (A) (A) (A) (A) (A) (A)
                 (A) (A) (A) (A) (A) (A) (A) (A) (A) (A) (A) (A)
                 (A) (A) (A) (A) (A) (A) (A) (A) (A) (A) (A) (A)
                 (A) (A) (A) (A) (A) (A) (A) (A) (A) (A) (A) (A)
                 (A) (A) (A) (A) (A) (A) (A) (A) (A) (A) (A) (A)
                 (A) (A) (A) (A) (A) (A) (A) (A) (A) (A) (A) (A)
                 (A) (A) (A) (A) (A) (A) (A) (A) (A) (A) (A) (A)
                 (A) (A) (A) (A) (A) (A) (A) (A) (A) (A) (A) (A)
                 (A) (A) (A) (A) (A) (A) (A) (A) (A) (A) (A) (A)
                 (A) (A) (A) (A) (A) (A) (A) (A) (A) (A) (A) (A)
                 (A) (A) (A) (A) (A) (A) (A) (A) (A) (A) (A) (A)
                 (A) (A) (A) (A) (A) (A) (A) (A) (A) (A) (A) (A)
                 (A) (A) (A) (A) (A) (A) (A) (A) (A) (A) (A) (A)
                 (A) (A) (A) (A) (A) (A) (A) (A) (A) (A) (A) (A)
                 (A) (A) (A) (A) (A) (A) (A) (A) (A) (A) (A) (A)
                 (A) (A) (A) (A) (A) (A) (A) (A) (A) (A) (A) (A)
                 (A) (A) (A) (A) (A) (A) (A) (A) (A) (A) (A) (A)
                 (A) (A) (A) (A)
 The electronic state is 1-A.
 Alpha  occ. eigenvalues --  -88.88540 -88.88308 -88.87422 -88.87141 -10.22133
 Alpha  occ. eigenvalues --  -10.22058 -10.21609 -10.21549 -10.21060 -10.20987
 Alpha  occ. eigenvalues --  -10.20526 -10.20462 -10.20383 -10.20335 -10.19407
 Alpha  occ. eigenvalues --  -10.19334 -10.19326 -10.19241 -10.19069 -10.19017
 Alpha  occ. eigenvalues --  -10.18795 -10.18778 -10.18638 -10.18575 -10.18340
 Alpha  occ. eigenvalues --  -10.18263 -10.18094 -10.17775 -10.17740 -10.17727
 Alpha  occ. eigenvalues --  -10.17670 -10.17444  -7.97191  -7.96953  -7.96079
 Alpha  occ. eigenvalues --   -7.95799  -5.93518  -5.93283  -5.93159  -5.92922
 Alpha  occ. eigenvalues --   -5.92690  -5.92450  -5.92408  -5.92127  -5.92050
 Alpha  occ. eigenvalues --   -5.91765  -5.91578  -5.91296  -0.92634  -0.91533
 Alpha  occ. eigenvalues --   -0.88562  -0.87466  -0.84477  -0.83411  -0.82405
 Alpha  occ. eigenvalues --   -0.81332  -0.78091  -0.77685  -0.77033  -0.76604
 Alpha  occ. eigenvalues --   -0.74269  -0.73204  -0.72456  -0.71404  -0.70321
 Alpha  occ. eigenvalues --   -0.69257  -0.64931  -0.63886  -0.61842  -0.60797
 Alpha  occ. eigenvalues --   -0.59683  -0.58777  -0.58638  -0.57738  -0.57289
 Alpha  occ. eigenvalues --   -0.56241  -0.51737  -0.50733  -0.50524  -0.49492
 Alpha  occ. eigenvalues --   -0.49400  -0.48373  -0.47806  -0.46930  -0.45955
 Alpha  occ. eigenvalues --   -0.45797  -0.45062  -0.44803  -0.44293  -0.43846
 Alpha  occ. eigenvalues --   -0.43667  -0.43145  -0.42599  -0.42324  -0.41145
 Alpha  occ. eigenvalues --   -0.40788  -0.40113  -0.39861  -0.39437  -0.38406
 Alpha  occ. eigenvalues --   -0.37598  -0.36948  -0.36590  -0.36495  -0.35912
 Alpha  occ. eigenvalues --   -0.35497  -0.35053  -0.34939  -0.34814  -0.34054
 Alpha  occ. eigenvalues --   -0.33860  -0.33714  -0.32801  -0.31852  -0.29162
 Alpha  occ. eigenvalues --   -0.28492  -0.28096  -0.27485  -0.25308  -0.24215
 Alpha  occ. eigenvalues --   -0.23242  -0.22167  -0.21435  -0.20375
 Alpha virt. eigenvalues --   -0.06031  -0.04912  -0.02753  -0.02023  -0.01617
 Alpha virt. eigenvalues --   -0.00903  -0.00781  -0.00011   0.00478   0.01213
 Alpha virt. eigenvalues --    0.01521   0.02647   0.03674   0.03823   0.04262
 Alpha virt. eigenvalues --    0.04751   0.04908   0.05522   0.06461   0.06989
 Alpha virt. eigenvalues --    0.07186   0.07545   0.07854   0.08868   0.09210
 Alpha virt. eigenvalues --    0.10416   0.10981   0.11914   0.12504   0.12631
 Alpha virt. eigenvalues --    0.12721   0.13065   0.13167   0.13407   0.13895
 Alpha virt. eigenvalues --    0.14150   0.14567   0.14968   0.15669   0.16008
 Alpha virt. eigenvalues --    0.16707   0.17257   0.18041   0.18818   0.19954
 Alpha virt. eigenvalues --    0.20911   0.21226   0.21724   0.22856   0.23006
 Alpha virt. eigenvalues --    0.23564   0.24244   0.24394   0.25173   0.26800
 Alpha virt. eigenvalues --    0.27293   0.27374   0.27796   0.28096   0.28212
 Alpha virt. eigenvalues --    0.28548   0.28982   0.29160   0.29378   0.29977
 Alpha virt. eigenvalues --    0.31817   0.32349   0.33663   0.33886   0.34864
 Alpha virt. eigenvalues --    0.35078   0.35305   0.36165   0.36631   0.36904
 Alpha virt. eigenvalues --    0.37935   0.37987   0.38198   0.38599   0.38997
 Alpha virt. eigenvalues --    0.39533   0.39930   0.40215   0.40598   0.40821
 Alpha virt. eigenvalues --    0.41094   0.41248   0.41579   0.41819   0.42107
 Alpha virt. eigenvalues --    0.42299   0.42829   0.43121   0.43302   0.43595
 Alpha virt. eigenvalues --    0.43753   0.44103   0.44324   0.44620   0.45051
 Alpha virt. eigenvalues --    0.45713   0.46004   0.46222   0.46327   0.46484
 Alpha virt. eigenvalues --    0.47269   0.48404   0.48689   0.48840   0.49313
 Alpha virt. eigenvalues --    0.49564   0.50622   0.50789   0.50993   0.51507
 Alpha virt. eigenvalues --    0.52398   0.52873   0.53741   0.53843   0.54216
 Alpha virt. eigenvalues --    0.55259   0.55527   0.56050   0.56721   0.57145
 Alpha virt. eigenvalues --    0.57894   0.58088   0.58158   0.58729   0.58971
 Alpha virt. eigenvalues --    0.59034   0.59468   0.59802   0.59851   0.60075
 Alpha virt. eigenvalues --    0.60818   0.60851   0.61277   0.61394   0.61843
 Alpha virt. eigenvalues --    0.62459   0.62628   0.63114   0.63530   0.64147
 Alpha virt. eigenvalues --    0.64592   0.65494   0.66379   0.67155   0.67599
 Alpha virt. eigenvalues --    0.68469   0.69430   0.69664   0.70111   0.70693
 Alpha virt. eigenvalues --    0.71130   0.71573   0.71793   0.72202   0.72430
 Alpha virt. eigenvalues --    0.72952   0.73289   0.73503   0.74301   0.74811
 Alpha virt. eigenvalues --    0.75196   0.75491   0.76032   0.76468   0.77272
 Alpha virt. eigenvalues --    0.77605   0.77763   0.78241   0.78720   0.79247
 Alpha virt. eigenvalues --    0.79861   0.79972   0.80806   0.80959   0.81407
 Alpha virt. eigenvalues --    0.82148   0.82245   0.83028   0.83773   0.84036
 Alpha virt. eigenvalues --    0.84471   0.84819   0.85939   0.86182   0.86976
 Alpha virt. eigenvalues --    0.87203   0.87390   0.87934   0.88723   0.89148
 Alpha virt. eigenvalues --    0.89809   0.90218   0.90763   0.91134   0.91799
 Alpha virt. eigenvalues --    0.92673   0.93497   0.93569   0.94384   0.94737
 Alpha virt. eigenvalues --    0.95810   0.96517   0.97291   0.97376   0.98364
 Alpha virt. eigenvalues --    0.98741   0.99158   0.99494   0.99692   1.00283
 Alpha virt. eigenvalues --    1.00663   1.00951   1.01816   1.02647   1.03267
 Alpha virt. eigenvalues --    1.04159   1.04522   1.05973   1.06895   1.07108
 Alpha virt. eigenvalues --    1.07603   1.08074   1.08493   1.09323   1.09563
 Alpha virt. eigenvalues --    1.09854   1.10163   1.10852   1.11037   1.11289
 Alpha virt. eigenvalues --    1.11670   1.11936   1.13644   1.15847   1.17386
 Alpha virt. eigenvalues --    1.18789   1.19933   1.20868   1.21539   1.21992
 Alpha virt. eigenvalues --    1.22922   1.23661   1.24777   1.25082   1.26372
 Alpha virt. eigenvalues --    1.28142   1.28608   1.29347   1.29550   1.30731
 Alpha virt. eigenvalues --    1.32250   1.34783   1.36014   1.38644   1.40342
 Alpha virt. eigenvalues --    1.41063   1.41508   1.41582   1.42965   1.43401
 Alpha virt. eigenvalues --    1.43847   1.44286   1.44839   1.45789   1.46645
 Alpha virt. eigenvalues --    1.47498   1.48397   1.48784   1.49148   1.49615
 Alpha virt. eigenvalues --    1.51021   1.52729   1.53388   1.53569   1.54156
 Alpha virt. eigenvalues --    1.54774   1.55819   1.56038   1.56675   1.57046
 Alpha virt. eigenvalues --    1.58399   1.58580   1.59286   1.59647   1.59858
 Alpha virt. eigenvalues --    1.60887   1.61024   1.61231   1.61412   1.61816
 Alpha virt. eigenvalues --    1.62458   1.62570   1.63009   1.63661   1.64193
 Alpha virt. eigenvalues --    1.65052   1.66441   1.67957   1.68559   1.69621
 Alpha virt. eigenvalues --    1.70350   1.70567   1.72113   1.72386   1.73167
 Alpha virt. eigenvalues --    1.73624   1.73684   1.74047   1.74565   1.75788
 Alpha virt. eigenvalues --    1.75884   1.76500   1.77146   1.80345   1.80643
 Alpha virt. eigenvalues --    1.81209   1.81557   1.82166   1.82542   1.82855
 Alpha virt. eigenvalues --    1.83106   1.83436   1.84255   1.84444   1.85464
 Alpha virt. eigenvalues --    1.86194   1.86504   1.87185   1.88297   1.88907
 Alpha virt. eigenvalues --    1.89402   1.89516   1.90006   1.90244   1.90418
 Alpha virt. eigenvalues --    1.90489   1.91174   1.91431   1.92123   1.92722
 Alpha virt. eigenvalues --    1.92905   1.93704   1.94384   1.94447   1.95128
 Alpha virt. eigenvalues --    1.95543   1.96036   1.96254   1.97361   1.97992
 Alpha virt. eigenvalues --    1.98289   1.99296   1.99953   2.00438   2.00737
 Alpha virt. eigenvalues --    2.01409   2.02177   2.02318   2.03208   2.03476
 Alpha virt. eigenvalues --    2.05091   2.05155   2.06021   2.07312   2.08130
 Alpha virt. eigenvalues --    2.08240   2.09657   2.10957   2.12319   2.13174
 Alpha virt. eigenvalues --    2.13718   2.14772   2.16962   2.23052   2.23542
 Alpha virt. eigenvalues --    2.26050   2.26353   2.26524   2.26927   2.27223
 Alpha virt. eigenvalues --    2.28135   2.29176   2.30543   2.32551   2.32907
 Alpha virt. eigenvalues --    2.33176   2.33432   2.33656   2.33733   2.33906
 Alpha virt. eigenvalues --    2.34569   2.35028   2.36146   2.37302   2.37590
 Alpha virt. eigenvalues --    2.38677   2.40164   2.41754   2.42311   2.47911
 Alpha virt. eigenvalues --    2.49252   2.52245   2.52768   2.54002   2.55967
 Alpha virt. eigenvalues --    2.56353   2.56642   2.57330   2.58039   2.58422
 Alpha virt. eigenvalues --    2.58645   2.60137   2.60433   2.60872   2.61321
 Alpha virt. eigenvalues --    2.61925   2.62447   2.63152   2.63555   2.64044
 Alpha virt. eigenvalues --    2.64873   2.65212   2.65780   2.66015   2.66063
 Alpha virt. eigenvalues --    2.66301   2.67304   2.67689   2.68915   2.68973
 Alpha virt. eigenvalues --    2.69568   2.69694   2.69978   2.71923   2.73080
 Alpha virt. eigenvalues --    2.73439   2.73727   2.74375   2.74998   2.76170
 Alpha virt. eigenvalues --    2.77699   2.79195   2.79878   2.80070   2.81086
 Alpha virt. eigenvalues --    2.81502   2.81864   2.82172   2.83060   2.83659
 Alpha virt. eigenvalues --    2.84634   2.84835   2.85947   2.86083   2.86857
 Alpha virt. eigenvalues --    2.88156   2.90002   2.91793   2.92663   2.94285
 Alpha virt. eigenvalues --    2.94738   2.97672   2.99573   3.04174   3.05083
 Alpha virt. eigenvalues --    3.05816   3.06880   3.08272   3.08959   3.11984
 Alpha virt. eigenvalues --    3.12268   3.16059   3.16786   3.17986   3.18556
 Alpha virt. eigenvalues --    3.23946   3.24274   3.25131   3.25796   3.30473
 Alpha virt. eigenvalues --    3.30565   3.31041   3.31596   3.32728   3.33298
 Alpha virt. eigenvalues --    3.35019   3.36231   3.38868   3.40125   3.43741
 Alpha virt. eigenvalues --    3.44399   3.45916   3.46839   3.47001   3.47882
 Alpha virt. eigenvalues --    3.51862   3.51896   3.55460   3.56396   3.56788
 Alpha virt. eigenvalues --    3.57100   3.63229   3.64598   3.77690   3.77922
 Alpha virt. eigenvalues --    3.83611   3.84258   3.98728   3.99791   4.00250
 Alpha virt. eigenvalues --    4.01235   4.01577   4.02780   4.04194   4.05251
 Alpha virt. eigenvalues --    4.11441   4.11693   4.13122   4.14860   4.20804
 Alpha virt. eigenvalues --    4.22116   4.54764   4.56322   4.79433   4.79551
 Alpha virt. eigenvalues --    4.80594   4.81123   7.81788   7.83439   7.87959
 Alpha virt. eigenvalues --    7.89778  17.20624  17.21197  17.22922  17.24155
 Alpha virt. eigenvalues --   17.44477  17.46185  17.51584  17.52659  17.52994
 Alpha virt. eigenvalues --   17.54207  17.54710  17.58101  23.37036  23.38195
 Alpha virt. eigenvalues --   23.55252  23.55699  23.69743  23.70718  23.85592
 Alpha virt. eigenvalues --   23.86283  23.86887  23.87135  23.90881  23.91006
 Alpha virt. eigenvalues --   23.92536  23.92943  23.98032  23.99136  24.00903
 Alpha virt. eigenvalues --   24.01934  24.03530  24.04550  24.06976  24.07098
 Alpha virt. eigenvalues --   24.08045  24.08304  24.14386  24.14483  24.15511
 Alpha virt. eigenvalues --   24.15842 188.92938 188.94942 189.00532 189.02816
          Condensed to atoms (all electrons):
               1          2          3          4          5          6
     1  S   15.392949   0.011978  -0.059633   0.005651   0.000128   0.009490
     2  S    0.011978  15.367028  -0.000238  -0.000021   0.000309   0.002680
     3  C   -0.059633  -0.000238   4.872792   0.510094  -0.040291  -0.050235
     4  C    0.005651  -0.000021   0.510094   4.888473   0.489386  -0.050880
     5  C    0.000128   0.000309  -0.040291   0.489386   4.868983   0.511420
     6  C    0.009490   0.002680  -0.050235  -0.050880   0.511420   4.863045
     7  C    0.002883   0.010678  -0.000001   0.000000  -0.000000  -0.000001
     8  C    0.000256  -0.000434   0.000000  -0.000000   0.000000  -0.000000
     9  C    0.000004   0.006379  -0.000000   0.000000  -0.000000   0.000000
    10  C   -0.000273  -0.063514   0.000000  -0.000000   0.000000  -0.000001
    11  C    0.009654   0.318915   0.000033  -0.000002   0.000002  -0.000310
    12  C   -0.073486  -0.087031  -0.000525   0.000028  -0.000020   0.000087
    13  C    0.318509  -0.093628   0.000058  -0.000039  -0.000677   0.011271
    14  C   -0.087066   0.327099   0.015953  -0.001109   0.013452  -0.088859
    15  C   -0.099402  -0.071020  -0.000426  -0.049791  -0.029197   0.487170
    16  C    0.326334   0.009369   0.437826  -0.051430  -0.056598  -0.041470
    17  H   -0.003008   0.000022   0.422467  -0.038161   0.007502  -0.000698
    18  H    0.000108  -0.000001   0.006943  -0.041751   0.411099  -0.037139
    19  H   -0.000632   0.003000  -0.000914   0.007682  -0.039327   0.420554
    20  H    0.003262  -0.000575  -0.000003   0.000000  -0.000000   0.000000
    21  H   -0.000006   0.000099   0.000000  -0.000000  -0.000000   0.000000
    22  H   -0.000003  -0.000371  -0.000000   0.000000   0.000000   0.000000
    23  H    0.000021  -0.003363   0.000000  -0.000000   0.000000  -0.000000
    24  H   -0.000414  -0.000003  -0.042693   0.414671  -0.041743   0.007484
    25  S    0.000006  -0.000051   0.000000  -0.000000  -0.000000   0.000007
    26  S   -0.004443  -0.009461  -0.000035   0.000033   0.000023  -0.000014
    27  C   -0.000009  -0.000000   0.000004   0.000011   0.000004  -0.000009
    28  C    0.000036  -0.000001  -0.000087  -0.000434  -0.000103  -0.000017
    29  C    0.000471  -0.000008  -0.003470  -0.004733   0.000088   0.000300
    30  C   -0.005872  -0.000058  -0.002145   0.001699   0.000009   0.002102
    31  C   -0.000001  -0.000014   0.000000   0.000000  -0.000000  -0.000000
    32  C    0.000000  -0.000010  -0.000000  -0.000000   0.000000   0.000000
    33  C   -0.000001   0.000018   0.000000  -0.000000  -0.000000   0.000000
    34  C   -0.000013   0.000091  -0.000000  -0.000000  -0.000000   0.000000
    35  C    0.000071  -0.000189   0.000000  -0.000000   0.000000  -0.000000
    36  C   -0.000035   0.000010   0.000000   0.000000  -0.000000  -0.000000
    37  C    0.000067   0.000240  -0.000000  -0.000000  -0.000000  -0.000002
    38  C    0.000135  -0.000126  -0.000004   0.000001  -0.000006  -0.000025
    39  C   -0.000839   0.000226   0.000195   0.000252  -0.000077   0.000081
    40  C   -0.000022  -0.000031  -0.000003  -0.000017  -0.000004   0.000002
    41  H   -0.000000   0.000000   0.000000   0.000001   0.000000  -0.000000
    42  H   -0.000307  -0.000001   0.005022   0.006075  -0.000075  -0.000355
    43  H    0.003604  -0.000044  -0.001091  -0.002450  -0.000511  -0.001799
    44  H   -0.000000   0.000001  -0.000000   0.000000  -0.000000   0.000000
    45  H    0.000000  -0.000000  -0.000000  -0.000000   0.000000   0.000000
    46  H   -0.000000  -0.000000   0.000000   0.000000  -0.000000  -0.000000
    47  H    0.000004  -0.000001  -0.000000   0.000000   0.000000  -0.000000
    48  H    0.000003   0.000000  -0.000012  -0.000034   0.000012   0.000005
               7          8          9         10         11         12
     1  S    0.002883   0.000256   0.000004  -0.000273   0.009654  -0.073486
     2  S    0.010678  -0.000434   0.006379  -0.063514   0.318915  -0.087031
     3  C   -0.000001   0.000000  -0.000000   0.000000   0.000033  -0.000525
     4  C    0.000000  -0.000000   0.000000  -0.000000  -0.000002   0.000028
     5  C   -0.000000   0.000000  -0.000000   0.000000   0.000002  -0.000020
     6  C   -0.000001  -0.000000   0.000000  -0.000001  -0.000310   0.000087
     7  C    4.887785   0.504385  -0.049837  -0.055448  -0.039450   0.482708
     8  C    0.504385   4.894605   0.485716  -0.039462  -0.056564  -0.029755
     9  C   -0.049837   0.485716   4.894740   0.506037  -0.045520  -0.052847
    10  C   -0.055448  -0.039462   0.506037   4.869307   0.437634   0.008902
    11  C   -0.039450  -0.056564  -0.045520   0.437634   5.380367   0.407084
    12  C    0.482708  -0.029755  -0.052847   0.008902   0.407084   4.985317
    13  C   -0.092946   0.013378  -0.001188   0.017510  -0.096494   0.376952
    14  C    0.011530  -0.000619  -0.000051  -0.000422  -0.091184  -0.012111
    15  C    0.000094  -0.000016   0.000026  -0.000494   0.003244   0.021207
    16  C   -0.000289   0.000002  -0.000002   0.000033   0.000000   0.002217
    17  H   -0.000000   0.000000  -0.000000   0.000000   0.000001  -0.000010
    18  H    0.000000  -0.000000  -0.000000   0.000000  -0.000000  -0.000000
    19  H    0.000000  -0.000000   0.000000  -0.000003  -0.000092   0.000013
    20  H    0.421299  -0.040132   0.007601  -0.000981   0.009164  -0.044435
    21  H   -0.038008   0.412433  -0.041932   0.007013   0.000210   0.007568
    22  H    0.007604  -0.043178   0.415033  -0.041062   0.008839  -0.000372
    23  H   -0.000638   0.007390  -0.037366   0.420326  -0.046452   0.007312
    24  H    0.000000   0.000000   0.000000  -0.000000  -0.000000  -0.000000
    25  S    0.000000   0.000000  -0.000000  -0.000000  -0.000000   0.000000
    26  S    0.000037  -0.000270  -0.000418  -0.001759  -0.008049   0.002824
    27  C    0.000000  -0.000000   0.000000  -0.000000  -0.000000   0.000000
    28  C   -0.000000   0.000000  -0.000000   0.000000   0.000000  -0.000000
    29  C   -0.000000  -0.000000   0.000000  -0.000000  -0.000000  -0.000000
    30  C   -0.000000  -0.000000   0.000000  -0.000000  -0.000009   0.000033
    31  C    0.000000   0.000000  -0.000000  -0.000001   0.000000   0.000001
    32  C   -0.000000  -0.000000   0.000000  -0.000002   0.000000  -0.000000
    33  C    0.000015   0.000001  -0.000091  -0.000076   0.000006   0.000012
    34  C    0.000155  -0.000682  -0.000854   0.000398   0.000444   0.000358
    35  C   -0.000157   0.000080   0.000131   0.000395  -0.000087  -0.000394
    36  C   -0.000001   0.000002   0.000005   0.000016  -0.000020   0.000003
    37  C   -0.000002  -0.000000   0.000000   0.000001  -0.000000  -0.000011
    38  C    0.000029   0.000005  -0.000004  -0.000001   0.000037   0.000149
    39  C    0.000000   0.000000  -0.000000   0.000001   0.000009  -0.000024
    40  C    0.000000   0.000000   0.000000  -0.000000  -0.000000  -0.000000
    41  H    0.000000  -0.000000   0.000000  -0.000000  -0.000000   0.000000
    42  H   -0.000000  -0.000000   0.000000  -0.000000  -0.000000   0.000000
    43  H   -0.000007   0.000000  -0.000000   0.000003   0.000008  -0.000164
    44  H    0.000000  -0.000000  -0.000000  -0.000000  -0.000000  -0.000000
    45  H   -0.000000   0.000000   0.000000   0.000000   0.000000  -0.000000
    46  H   -0.000000   0.000002   0.000020   0.000016   0.000001   0.000000
    47  H    0.000047   0.002285   0.003032   0.000362  -0.001159  -0.000598
    48  H   -0.000000  -0.000000  -0.000000   0.000000   0.000000  -0.000000
              13         14         15         16         17         18
     1  S    0.318509  -0.087066  -0.099402   0.326334  -0.003008   0.000108
     2  S   -0.093628   0.327099  -0.071020   0.009369   0.000022  -0.000001
     3  C    0.000058   0.015953  -0.000426   0.437826   0.422467   0.006943
     4  C   -0.000039  -0.001109  -0.049791  -0.051430  -0.038161  -0.041751
     5  C   -0.000677   0.013452  -0.029197  -0.056598   0.007502   0.411099
     6  C    0.011271  -0.088859   0.487170  -0.041470  -0.000698  -0.037139
     7  C   -0.092946   0.011530   0.000094  -0.000289  -0.000000   0.000000
     8  C    0.013378  -0.000619  -0.000016   0.000002   0.000000  -0.000000
     9  C   -0.001188  -0.000051   0.000026  -0.000002  -0.000000  -0.000000
    10  C    0.017510  -0.000422  -0.000494   0.000033   0.000000   0.000000
    11  C   -0.096494  -0.091184   0.003244   0.000000   0.000001  -0.000000
    12  C    0.376952  -0.012111   0.021207   0.002217  -0.000010  -0.000000
    13  C    5.473325   0.361776  -0.016879  -0.095393  -0.000106   0.000016
    14  C    0.361776   5.435587   0.396470  -0.093956  -0.000299  -0.000465
    15  C   -0.016879   0.396470   4.949250   0.385332   0.007346   0.007471
    16  C   -0.095393  -0.093956   0.385332   5.486861  -0.048539   0.000249
    17  H   -0.000106  -0.000299   0.007346  -0.048539   0.562335  -0.000312
    18  H    0.000016  -0.000465   0.007471   0.000249  -0.000312   0.569278
    19  H    0.000122  -0.011949  -0.045492   0.008978   0.000059  -0.007599
    20  H   -0.011878   0.000042   0.000009  -0.000077   0.000000   0.000000
    21  H   -0.000462   0.000017   0.000000  -0.000000  -0.000000   0.000000
    22  H   -0.000002   0.000010  -0.000000  -0.000000   0.000000   0.000000
    23  H   -0.000340  -0.000080  -0.000007   0.000001   0.000000  -0.000000
    24  H    0.000010  -0.000002  -0.000276   0.008903  -0.007819  -0.007379
    25  S   -0.000001  -0.000008   0.000005   0.000006  -0.000000   0.000000
    26  S   -0.012325  -0.003836  -0.000519  -0.002375   0.000003   0.000000
    27  C    0.000000   0.000001  -0.000004  -0.000016   0.000000  -0.000000
    28  C   -0.000001  -0.000001   0.000047   0.000115   0.000002   0.000033
    29  C    0.000029   0.000039  -0.000002   0.000624   0.000121   0.000112
    30  C    0.001200  -0.000205  -0.003256  -0.010936  -0.000103   0.000016
    31  C   -0.000000   0.000000   0.000000   0.000000  -0.000000  -0.000000
    32  C    0.000000   0.000000  -0.000000   0.000000   0.000000   0.000000
    33  C   -0.000001  -0.000000   0.000000   0.000000  -0.000000  -0.000000
    34  C   -0.000055  -0.000015   0.000000  -0.000000  -0.000000  -0.000000
    35  C    0.000525   0.000089  -0.000026   0.000001   0.000000   0.000000
    36  C   -0.000005   0.000002   0.000003  -0.000000  -0.000000  -0.000000
    37  C   -0.000000  -0.000022   0.000001  -0.000002   0.000000   0.000000
    38  C    0.000299   0.000418  -0.000031   0.000041  -0.000001  -0.000000
    39  C   -0.000133  -0.000158   0.000030  -0.000305  -0.000007  -0.000008
    40  C   -0.000005   0.000002   0.000011   0.000028   0.000000  -0.000001
    41  H    0.000000   0.000000  -0.000000  -0.000000  -0.000000  -0.000000
    42  H    0.000028   0.000007  -0.000326  -0.000755   0.000300  -0.000032
    43  H   -0.004261  -0.000028  -0.000471   0.001653   0.000105   0.000022
    44  H   -0.000000  -0.000000   0.000000  -0.000000  -0.000000  -0.000000
    45  H    0.000000   0.000000  -0.000000  -0.000000   0.000000   0.000000
    46  H    0.000000  -0.000000   0.000000  -0.000000   0.000000  -0.000000
    47  H    0.000021   0.000015  -0.000001  -0.000000  -0.000000   0.000000
    48  H   -0.000000  -0.000000   0.000002   0.000002  -0.000001   0.000002
              19         20         21         22         23         24
     1  S   -0.000632   0.003262  -0.000006  -0.000003   0.000021  -0.000414
     2  S    0.003000  -0.000575   0.000099  -0.000371  -0.003363  -0.000003
     3  C   -0.000914  -0.000003   0.000000  -0.000000   0.000000  -0.042693
     4  C    0.007682   0.000000  -0.000000   0.000000  -0.000000   0.414671
     5  C   -0.039327  -0.000000  -0.000000   0.000000   0.000000  -0.041743
     6  C    0.420554   0.000000   0.000000   0.000000  -0.000000   0.007484
     7  C    0.000000   0.421299  -0.038008   0.007604  -0.000638   0.000000
     8  C   -0.000000  -0.040132   0.412433  -0.043178   0.007390   0.000000
     9  C    0.000000   0.007601  -0.041932   0.415033  -0.037366   0.000000
    10  C   -0.000003  -0.000981   0.007013  -0.041062   0.420326  -0.000000
    11  C   -0.000092   0.009164   0.000210   0.008839  -0.046452  -0.000000
    12  C    0.000013  -0.044435   0.007568  -0.000372   0.007312  -0.000000
    13  C    0.000122  -0.011878  -0.000462  -0.000002  -0.000340   0.000010
    14  C   -0.011949   0.000042   0.000017   0.000010  -0.000080  -0.000002
    15  C   -0.045492   0.000009   0.000000  -0.000000  -0.000007  -0.000276
    16  C    0.008978  -0.000077  -0.000000  -0.000000   0.000001   0.008903
    17  H    0.000059   0.000000  -0.000000   0.000000   0.000000  -0.007819
    18  H   -0.007599   0.000000   0.000000   0.000000  -0.000000  -0.007379
    19  H    0.567920   0.000000   0.000000   0.000000   0.000000  -0.000302
    20  H    0.000000   0.567686  -0.007613  -0.000304   0.000061  -0.000000
    21  H    0.000000  -0.007613   0.568740  -0.007412  -0.000312   0.000000
    22  H    0.000000  -0.000304  -0.007412   0.568449  -0.007735  -0.000000
    23  H    0.000000   0.000061  -0.000312  -0.007735   0.561469   0.000000
    24  H   -0.000302  -0.000000   0.000000  -0.000000   0.000000   0.569179
    25  S    0.000003  -0.000000   0.000000   0.000000  -0.000000   0.000000
    26  S    0.000023   0.000143   0.000001   0.000014  -0.000038   0.000001
    27  C   -0.000002   0.000000  -0.000000  -0.000000  -0.000000  -0.000001
    28  C   -0.000005  -0.000000   0.000000   0.000000   0.000000   0.000012
    29  C    0.000029  -0.000000   0.000000  -0.000000  -0.000000   0.000058
    30  C    0.000129   0.000000  -0.000000  -0.000000  -0.000000   0.000047
    31  C    0.000000   0.000000   0.000000  -0.000000  -0.000000   0.000000
    32  C   -0.000000   0.000000   0.000000   0.000000  -0.000001  -0.000000
    33  C   -0.000000   0.000000  -0.000000   0.000009   0.000021   0.000000
    34  C    0.000000   0.000010   0.000008   0.000048   0.000108   0.000000
    35  C    0.000000  -0.000009  -0.000000  -0.000003   0.000006  -0.000000
    36  C    0.000000  -0.000000   0.000000  -0.000000  -0.000001   0.000000
    37  C   -0.000001   0.000000  -0.000000  -0.000000   0.000000  -0.000000
    38  C   -0.000013  -0.000005   0.000000   0.000000   0.000001  -0.000000
    39  C    0.000027  -0.000000   0.000000   0.000000   0.000000   0.000002
    40  C   -0.000000  -0.000000   0.000000  -0.000000  -0.000000  -0.000001
    41  H    0.000000   0.000000  -0.000000   0.000000  -0.000000  -0.000000
    42  H    0.000003  -0.000000  -0.000000   0.000000  -0.000000   0.000223
    43  H    0.000001   0.000002  -0.000000   0.000000   0.000000   0.000024
    44  H    0.000000   0.000000   0.000000   0.000000   0.000000   0.000000
    45  H   -0.000000  -0.000000  -0.000000  -0.000000  -0.000000   0.000000
    46  H    0.000000  -0.000000  -0.000000   0.000003   0.000001  -0.000000
    47  H   -0.000000   0.000015   0.000059   0.000079   0.000032  -0.000000
    48  H   -0.000000   0.000000   0.000000   0.000000   0.000000   0.000004
              25         26         27         28         29         30
     1  S    0.000006  -0.004443  -0.000009   0.000036   0.000471  -0.005872
     2  S   -0.000051  -0.009461  -0.000000  -0.000001  -0.000008  -0.000058
     3  C    0.000000  -0.000035   0.000004  -0.000087  -0.003470  -0.002145
     4  C   -0.000000   0.000033   0.000011  -0.000434  -0.004733   0.001699
     5  C   -0.000000   0.000023   0.000004  -0.000103   0.000088   0.000009
     6  C    0.000007  -0.000014  -0.000009  -0.000017   0.000300   0.002102
     7  C    0.000000   0.000037   0.000000  -0.000000  -0.000000  -0.000000
     8  C    0.000000  -0.000270  -0.000000   0.000000  -0.000000  -0.000000
     9  C   -0.000000  -0.000418   0.000000  -0.000000   0.000000   0.000000
    10  C   -0.000000  -0.001759  -0.000000   0.000000  -0.000000  -0.000000
    11  C   -0.000000  -0.008049  -0.000000   0.000000  -0.000000  -0.000009
    12  C    0.000000   0.002824   0.000000  -0.000000  -0.000000   0.000033
    13  C   -0.000001  -0.012325   0.000000  -0.000001   0.000029   0.001200
    14  C   -0.000008  -0.003836   0.000001  -0.000001   0.000039  -0.000205
    15  C    0.000005  -0.000519  -0.000004   0.000047  -0.000002  -0.003256
    16  C    0.000006  -0.002375  -0.000016   0.000115   0.000624  -0.010936
    17  H   -0.000000   0.000003   0.000000   0.000002   0.000121  -0.000103
    18  H    0.000000   0.000000  -0.000000   0.000033   0.000112   0.000016
    19  H    0.000003   0.000023  -0.000002  -0.000005   0.000029   0.000129
    20  H   -0.000000   0.000143   0.000000  -0.000000  -0.000000   0.000000
    21  H    0.000000   0.000001  -0.000000   0.000000   0.000000  -0.000000
    22  H    0.000000   0.000014  -0.000000   0.000000  -0.000000  -0.000000
    23  H   -0.000000  -0.000038  -0.000000   0.000000  -0.000000  -0.000000
    24  H    0.000000   0.000001  -0.000001   0.000012   0.000058   0.000047
    25  S   15.383921   0.009181  -0.063030   0.006192  -0.000258   0.010027
    26  S    0.009181  15.390259  -0.000095  -0.000082   0.000346   0.001132
    27  C   -0.063030  -0.000095   4.880197   0.501809  -0.031224  -0.063315
    28  C    0.006192  -0.000082   0.501809   4.898230   0.476347  -0.039559
    29  C   -0.000258   0.000346  -0.031224   0.476347   4.916019   0.491259
    30  C    0.010027   0.001132  -0.063315  -0.039559   0.491259   4.899521
    31  C    0.002614   0.009777  -0.000000   0.000000  -0.000000  -0.000002
    32  C    0.000310  -0.000357   0.000000  -0.000000   0.000000  -0.000000
    33  C   -0.000029   0.006172  -0.000000   0.000000  -0.000000  -0.000000
    34  C   -0.000207  -0.063334   0.000000  -0.000000   0.000000  -0.000001
    35  C    0.009168   0.285343   0.000034  -0.000002   0.000004  -0.000252
    36  C   -0.070755  -0.093422  -0.000514   0.000027  -0.000018   0.000058
    37  C    0.315576  -0.096353  -0.000588   0.000008  -0.000691   0.012214
    38  C   -0.093394   0.295599   0.018868  -0.001704   0.015956  -0.091911
    39  C   -0.087454  -0.071947   0.016842  -0.059837  -0.007866   0.470202
    40  C    0.305440   0.007869   0.433216  -0.041763  -0.063060  -0.035624
    41  H   -0.003364   0.000025   0.419700  -0.037856   0.007590  -0.000680
    42  H    0.000110   0.000004   0.007732  -0.046245   0.409392  -0.039126
    43  H   -0.000654   0.004868  -0.001856   0.009348  -0.048345   0.410842
    44  H    0.003308  -0.000688  -0.000003   0.000000  -0.000000   0.000000
    45  H   -0.000003   0.000124   0.000000  -0.000000  -0.000000   0.000000
    46  H   -0.000003  -0.000368  -0.000000   0.000000   0.000000   0.000000
    47  H    0.000018  -0.003495   0.000000  -0.000000   0.000000  -0.000000
    48  H   -0.000373  -0.000003  -0.042586   0.414636  -0.043981   0.008050
              31         32         33         34         35         36
     1  S   -0.000001   0.000000  -0.000001  -0.000013   0.000071  -0.000035
     2  S   -0.000014  -0.000010   0.000018   0.000091  -0.000189   0.000010
     3  C    0.000000  -0.000000   0.000000  -0.000000   0.000000   0.000000
     4  C    0.000000  -0.000000  -0.000000  -0.000000  -0.000000   0.000000
     5  C   -0.000000   0.000000  -0.000000  -0.000000   0.000000  -0.000000
     6  C   -0.000000   0.000000   0.000000   0.000000  -0.000000  -0.000000
     7  C    0.000000  -0.000000   0.000015   0.000155  -0.000157  -0.000001
     8  C    0.000000  -0.000000   0.000001  -0.000682   0.000080   0.000002
     9  C   -0.000000   0.000000  -0.000091  -0.000854   0.000131   0.000005
    10  C   -0.000001  -0.000002  -0.000076   0.000398   0.000395   0.000016
    11  C    0.000000   0.000000   0.000006   0.000444  -0.000087  -0.000020
    12  C    0.000001  -0.000000   0.000012   0.000358  -0.000394   0.000003
    13  C   -0.000000   0.000000  -0.000001  -0.000055   0.000525  -0.000005
    14  C    0.000000   0.000000  -0.000000  -0.000015   0.000089   0.000002
    15  C    0.000000  -0.000000   0.000000   0.000000  -0.000026   0.000003
    16  C    0.000000   0.000000   0.000000  -0.000000   0.000001  -0.000000
    17  H   -0.000000   0.000000  -0.000000  -0.000000   0.000000  -0.000000
    18  H   -0.000000   0.000000  -0.000000  -0.000000   0.000000  -0.000000
    19  H    0.000000  -0.000000  -0.000000   0.000000   0.000000   0.000000
    20  H    0.000000   0.000000   0.000000   0.000010  -0.000009  -0.000000
    21  H    0.000000   0.000000  -0.000000   0.000008  -0.000000   0.000000
    22  H   -0.000000   0.000000   0.000009   0.000048  -0.000003  -0.000000
    23  H   -0.000000  -0.000001   0.000021   0.000108   0.000006  -0.000001
    24  H    0.000000  -0.000000   0.000000   0.000000  -0.000000   0.000000
    25  S    0.002614   0.000310  -0.000029  -0.000207   0.009168  -0.070755
    26  S    0.009777  -0.000357   0.006172  -0.063334   0.285343  -0.093422
    27  C   -0.000000   0.000000  -0.000000   0.000000   0.000034  -0.000514
    28  C    0.000000  -0.000000   0.000000  -0.000000  -0.000002   0.000027
    29  C   -0.000000   0.000000  -0.000000   0.000000   0.000004  -0.000018
    30  C   -0.000002  -0.000000  -0.000000  -0.000001  -0.000252   0.000058
    31  C    4.887266   0.508310  -0.048916  -0.056554  -0.044289   0.479020
    32  C    0.508310   4.884372   0.488839  -0.038364  -0.055952  -0.027646
    33  C   -0.048916   0.488839   4.895436   0.506855  -0.045601  -0.052968
    34  C   -0.056554  -0.038364   0.506855   4.870943   0.443987   0.009670
    35  C   -0.044289  -0.055952  -0.045601   0.443987   5.424316   0.413237
    36  C    0.479020  -0.027646  -0.052968   0.009670   0.413237   4.956724
    37  C   -0.090922   0.013554  -0.001253   0.018043  -0.098258   0.393026
    38  C    0.011266  -0.000611  -0.000014  -0.000589  -0.076974  -0.013162
    39  C   -0.000008  -0.000016   0.000025  -0.000516   0.003899   0.021232
    40  C   -0.000293   0.000002  -0.000002   0.000033  -0.000098   0.003609
    41  H   -0.000000   0.000000  -0.000000   0.000000   0.000001  -0.000008
    42  H    0.000000  -0.000000   0.000000  -0.000000  -0.000000  -0.000000
    43  H   -0.000001  -0.000000  -0.000000  -0.000004  -0.000247   0.000027
    44  H    0.419187  -0.040245   0.007630  -0.000956   0.009068  -0.045094
    45  H   -0.038593   0.411363  -0.042604   0.007115   0.000240   0.007641
    46  H    0.007770  -0.043647   0.414353  -0.041933   0.009044  -0.000353
    47  H   -0.000719   0.007243  -0.039020   0.415181  -0.043129   0.007378
    48  H    0.000000   0.000000   0.000000  -0.000000  -0.000000  -0.000000
              37         38         39         40         41         42
     1  S    0.000067   0.000135  -0.000839  -0.000022  -0.000000  -0.000307
     2  S    0.000240  -0.000126   0.000226  -0.000031   0.000000  -0.000001
     3  C   -0.000000  -0.000004   0.000195  -0.000003   0.000000   0.005022
     4  C   -0.000000   0.000001   0.000252  -0.000017   0.000001   0.006075
     5  C   -0.000000  -0.000006  -0.000077  -0.000004   0.000000  -0.000075
     6  C   -0.000002  -0.000025   0.000081   0.000002  -0.000000  -0.000355
     7  C   -0.000002   0.000029   0.000000   0.000000   0.000000  -0.000000
     8  C   -0.000000   0.000005   0.000000   0.000000  -0.000000  -0.000000
     9  C    0.000000  -0.000004  -0.000000   0.000000   0.000000   0.000000
    10  C    0.000001  -0.000001   0.000001  -0.000000  -0.000000  -0.000000
    11  C   -0.000000   0.000037   0.000009  -0.000000  -0.000000  -0.000000
    12  C   -0.000011   0.000149  -0.000024  -0.000000   0.000000   0.000000
    13  C   -0.000000   0.000299  -0.000133  -0.000005   0.000000   0.000028
    14  C   -0.000022   0.000418  -0.000158   0.000002   0.000000   0.000007
    15  C    0.000001  -0.000031   0.000030   0.000011  -0.000000  -0.000326
    16  C   -0.000002   0.000041  -0.000305   0.000028  -0.000000  -0.000755
    17  H    0.000000  -0.000001  -0.000007   0.000000  -0.000000   0.000300
    18  H    0.000000  -0.000000  -0.000008  -0.000001  -0.000000  -0.000032
    19  H   -0.000001  -0.000013   0.000027  -0.000000   0.000000   0.000003
    20  H    0.000000  -0.000005  -0.000000  -0.000000   0.000000  -0.000000
    21  H   -0.000000   0.000000   0.000000   0.000000  -0.000000  -0.000000
    22  H   -0.000000   0.000000   0.000000  -0.000000   0.000000   0.000000
    23  H    0.000000   0.000001   0.000000  -0.000000  -0.000000  -0.000000
    24  H   -0.000000  -0.000000   0.000002  -0.000001  -0.000000   0.000223
    25  S    0.315576  -0.093394  -0.087454   0.305440  -0.003364   0.000110
    26  S   -0.096353   0.295599  -0.071947   0.007869   0.000025   0.000004
    27  C   -0.000588   0.018868   0.016842   0.433216   0.419700   0.007732
    28  C    0.000008  -0.001704  -0.059837  -0.041763  -0.037856  -0.046245
    29  C   -0.000691   0.015956  -0.007866  -0.063060   0.007590   0.409392
    30  C    0.012214  -0.091911   0.470202  -0.035624  -0.000680  -0.039126
    31  C   -0.090922   0.011266  -0.000008  -0.000293  -0.000000   0.000000
    32  C    0.013554  -0.000611  -0.000016   0.000002   0.000000  -0.000000
    33  C   -0.001253  -0.000014   0.000025  -0.000002  -0.000000   0.000000
    34  C    0.018043  -0.000589  -0.000516   0.000033   0.000000  -0.000000
    35  C   -0.098258  -0.076974   0.003899  -0.000098   0.000001  -0.000000
    36  C    0.393026  -0.013162   0.021232   0.003609  -0.000008  -0.000000
    37  C    5.472500   0.362146  -0.007766  -0.087808  -0.000118   0.000018
    38  C    0.362146   5.492215   0.393883  -0.104098  -0.000330  -0.000411
    39  C   -0.007766   0.393883   4.982422   0.399819   0.007353   0.008903
    40  C   -0.087808  -0.104098   0.399819   5.402555  -0.047959  -0.000167
    41  H   -0.000118  -0.000330   0.007353  -0.047959   0.569576  -0.000318
    42  H    0.000018  -0.000411   0.008903  -0.000167  -0.000318   0.579599
    43  H    0.000291  -0.017279  -0.053849   0.010784   0.000062  -0.009958
    44  H   -0.012286   0.000098   0.000020  -0.000110   0.000000   0.000000
    45  H   -0.000468   0.000015  -0.000000  -0.000000  -0.000000   0.000000
    46  H   -0.000004   0.000010  -0.000000  -0.000000   0.000000   0.000000
    47  H   -0.000259  -0.000170  -0.000009   0.000001   0.000000  -0.000000
    48  H    0.000010  -0.000005  -0.000494   0.009163  -0.007952  -0.007982
              43         44         45         46         47         48
     1  S    0.003604  -0.000000   0.000000  -0.000000   0.000004   0.000003
     2  S   -0.000044   0.000001  -0.000000  -0.000000  -0.000001   0.000000
     3  C   -0.001091  -0.000000  -0.000000   0.000000  -0.000000  -0.000012
     4  C   -0.002450   0.000000  -0.000000   0.000000   0.000000  -0.000034
     5  C   -0.000511  -0.000000   0.000000  -0.000000   0.000000   0.000012
     6  C   -0.001799   0.000000   0.000000  -0.000000  -0.000000   0.000005
     7  C   -0.000007   0.000000  -0.000000  -0.000000   0.000047  -0.000000
     8  C    0.000000  -0.000000   0.000000   0.000002   0.002285  -0.000000
     9  C   -0.000000  -0.000000   0.000000   0.000020   0.003032  -0.000000
    10  C    0.000003  -0.000000   0.000000   0.000016   0.000362   0.000000
    11  C    0.000008  -0.000000   0.000000   0.000001  -0.001159   0.000000
    12  C   -0.000164  -0.000000  -0.000000   0.000000  -0.000598  -0.000000
    13  C   -0.004261  -0.000000   0.000000   0.000000   0.000021  -0.000000
    14  C   -0.000028  -0.000000   0.000000  -0.000000   0.000015  -0.000000
    15  C   -0.000471   0.000000  -0.000000   0.000000  -0.000001   0.000002
    16  C    0.001653  -0.000000  -0.000000  -0.000000  -0.000000   0.000002
    17  H    0.000105  -0.000000   0.000000   0.000000  -0.000000  -0.000001
    18  H    0.000022  -0.000000   0.000000  -0.000000   0.000000   0.000002
    19  H    0.000001   0.000000  -0.000000   0.000000  -0.000000  -0.000000
    20  H    0.000002   0.000000  -0.000000  -0.000000   0.000015   0.000000
    21  H   -0.000000   0.000000  -0.000000  -0.000000   0.000059   0.000000
    22  H    0.000000   0.000000  -0.000000   0.000003   0.000079   0.000000
    23  H    0.000000   0.000000  -0.000000   0.000001   0.000032   0.000000
    24  H    0.000024   0.000000   0.000000  -0.000000  -0.000000   0.000004
    25  S   -0.000654   0.003308  -0.000003  -0.000003   0.000018  -0.000373
    26  S    0.004868  -0.000688   0.000124  -0.000368  -0.003495  -0.000003
    27  C   -0.001856  -0.000003   0.000000  -0.000000   0.000000  -0.042586
    28  C    0.009348   0.000000  -0.000000   0.000000  -0.000000   0.414636
    29  C   -0.048345  -0.000000  -0.000000   0.000000   0.000000  -0.043981
    30  C    0.410842   0.000000   0.000000   0.000000  -0.000000   0.008050
    31  C   -0.000001   0.419187  -0.038593   0.007770  -0.000719   0.000000
    32  C   -0.000000  -0.040245   0.411363  -0.043647   0.007243   0.000000
    33  C   -0.000000   0.007630  -0.042604   0.414353  -0.039020   0.000000
    34  C   -0.000004  -0.000956   0.007115  -0.041933   0.415181  -0.000000
    35  C   -0.000247   0.009068   0.000240   0.009044  -0.043129  -0.000000
    36  C    0.000027  -0.045094   0.007641  -0.000353   0.007378  -0.000000
    37  C    0.000291  -0.012286  -0.000468  -0.000004  -0.000259   0.000010
    38  C   -0.017279   0.000098   0.000015   0.000010  -0.000170  -0.000005
    39  C   -0.053849   0.000020  -0.000000  -0.000000  -0.000009  -0.000494
    40  C    0.010784  -0.000110  -0.000000  -0.000000   0.000001   0.009163
    41  H    0.000062   0.000000  -0.000000   0.000000   0.000000  -0.007952
    42  H   -0.009958   0.000000   0.000000   0.000000  -0.000000  -0.007982
    43  H    0.591977   0.000000   0.000000   0.000000   0.000001  -0.000282
    44  H    0.000000   0.574677  -0.007756  -0.000315   0.000060   0.000000
    45  H    0.000000  -0.007756   0.576244  -0.007654  -0.000307   0.000000
    46  H    0.000000  -0.000315  -0.007654   0.576731  -0.007587  -0.000000
    47  H    0.000001   0.000060  -0.000307  -0.007587   0.551688   0.000000
    48  H   -0.000282   0.000000   0.000000  -0.000000   0.000000   0.577959
 Mulliken charges:
               1
     1  S    0.249841
     2  S    0.272050
     3  C   -0.069583
     4  C   -0.083204
     5  C   -0.093788
     6  C   -0.043884
     7  C   -0.052466
     8  C   -0.109425
     9  C   -0.088612
    10  C   -0.064453
    11  C   -0.190259
    12  C   -0.000991
    13  C   -0.148209
    14  C   -0.170064
    15  C    0.059920
    16  C   -0.266432
    17  H    0.098800
    18  H    0.099338
    19  H    0.097788
    20  H    0.096721
    21  H    0.099597
    22  H    0.100353
    23  H    0.099585
    24  H    0.100016
    25  S    0.273692
    26  S    0.359890
    27  C   -0.075167
    28  C   -0.079146
    29  C   -0.115127
    30  C   -0.015486
    31  C   -0.044898
    32  C   -0.107141
    33  C   -0.088816
    34  C   -0.069370
    35  C   -0.233972
    36  C    0.012312
    37  C   -0.190880
    38  C   -0.190305
    39  C   -0.014111
    40  C   -0.191468
    41  H    0.094278
    42  H    0.088643
[...]
 Alpha  occ. eigenvalues --   -5.92739  -5.92739  -5.92267  -5.92266  -0.92301
 Alpha  occ. eigenvalues --   -0.88212  -0.84135  -0.82097  -0.77756  -0.77358
 Alpha  occ. eigenvalues --   -0.73954  -0.72123  -0.70016  -0.64604  -0.61534
 Alpha  occ. eigenvalues --   -0.59365  -0.58463  -0.56987  -0.51417  -0.50220
 Alpha  occ. eigenvalues --   -0.49097  -0.47492  -0.45651  -0.45496  -0.43992
 Alpha  occ. eigenvalues --   -0.43459  -0.43123  -0.40830  -0.40503  -0.39185
 Alpha  occ. eigenvalues --   -0.37284  -0.36629  -0.36204  -0.34755  -0.34568
 Alpha  occ. eigenvalues --   -0.34541  -0.32716  -0.28877  -0.28202  -0.24977
 Alpha  occ. eigenvalues --   -0.22873  -0.21142
 Alpha virt. eigenvalues --   -0.05634  -0.02355  -0.01598  -0.00538   0.00529
 Alpha virt. eigenvalues --    0.01814   0.04007   0.04132   0.04931   0.06274
 Alpha virt. eigenvalues --    0.07391   0.07898   0.08378   0.11281   0.12155
 Alpha virt. eigenvalues --    0.12961   0.13135   0.13213   0.14000   0.15845
 Alpha virt. eigenvalues --    0.16154   0.17707   0.19343   0.20644   0.23011
 Alpha virt. eigenvalues --    0.23156   0.24325   0.26898   0.27563   0.27686
 Alpha virt. eigenvalues --    0.28436   0.28987   0.29457   0.32878   0.34471
 Alpha virt. eigenvalues --    0.35827   0.37143   0.37441   0.38214   0.38784
 Alpha virt. eigenvalues --    0.38883   0.39778   0.40122   0.40604   0.41645
 Alpha virt. eigenvalues --    0.42095   0.42530   0.42664   0.44115   0.44468
 Alpha virt. eigenvalues --    0.44601   0.45384   0.45598   0.45806   0.45854
 Alpha virt. eigenvalues --    0.48376   0.49289   0.49469   0.50769   0.51611
 Alpha virt. eigenvalues --    0.53255   0.54814   0.56289   0.57147   0.58053
 Alpha virt. eigenvalues --    0.58699   0.59093   0.59418   0.59908   0.60359
 Alpha virt. eigenvalues --    0.60411   0.61634   0.62056   0.63624   0.63701
 Alpha virt. eigenvalues --    0.64647   0.66103   0.69589   0.70213   0.71869
 Alpha virt. eigenvalues --    0.72254   0.72781   0.73141   0.73662   0.74647
 Alpha virt. eigenvalues --    0.75797   0.76581   0.77499   0.78874   0.80151
 Alpha virt. eigenvalues --    0.80162   0.81842   0.83225   0.84213   0.84656
 Alpha virt. eigenvalues --    0.85760   0.85988   0.88325   0.88907   0.90285
 Alpha virt. eigenvalues --    0.90749   0.92271   0.93486   0.95972   0.96735
 Alpha virt. eigenvalues --    0.96752   0.98696   0.99409   1.00269   1.01682
 Alpha virt. eigenvalues --    1.02841   1.06057   1.06378   1.07540   1.08927
 Alpha virt. eigenvalues --    1.08966   1.09370   1.10726   1.11288   1.15743
 Alpha virt. eigenvalues --    1.18261   1.20259   1.21823   1.22319   1.24553
 Alpha virt. eigenvalues --    1.27961   1.28574   1.28963   1.34786   1.38699
 Alpha virt. eigenvalues --    1.40575   1.41488   1.42794   1.44201   1.44815
 Alpha virt. eigenvalues --    1.47146   1.47767   1.48942   1.52381   1.53863
 Alpha virt. eigenvalues --    1.53968   1.55929   1.56261   1.57906   1.58887
 Alpha virt. eigenvalues --    1.59642   1.60508   1.61021   1.61377   1.62167
 Alpha virt. eigenvalues --    1.63004   1.67111   1.69298   1.70368   1.71950
 Alpha virt. eigenvalues --    1.72872   1.73402   1.74565   1.75625   1.80208
 Alpha virt. eigenvalues --    1.80449   1.81565   1.82362   1.83269   1.83805
 Alpha virt. eigenvalues --    1.84229   1.86699   1.88786   1.89364   1.89440
 Alpha virt. eigenvalues --    1.89832   1.90823   1.90933   1.93661   1.93791
 Alpha virt. eigenvalues --    1.93885   1.96146   1.96192   1.98879   1.99490
 Alpha virt. eigenvalues --    2.00049   2.01111   2.02442   2.03435   2.06509
 Alpha virt. eigenvalues --    2.08045   2.10951   2.12006   2.14109   2.22431
 Alpha virt. eigenvalues --    2.25160   2.26306   2.26613   2.27653   2.32650
 Alpha virt. eigenvalues --    2.32800   2.32874   2.33279   2.34000   2.35759
 Alpha virt. eigenvalues --    2.37461   2.40468   2.47840   2.51992   2.53565
 Alpha virt. eigenvalues --    2.55488   2.56345   2.57262   2.59883   2.60227
 Alpha virt. eigenvalues --    2.61400   2.61610   2.62145   2.63709   2.64452
 Alpha virt. eigenvalues --    2.65123   2.65897   2.68911   2.68924   2.68999
 Alpha virt. eigenvalues --    2.70411   2.71688   2.73533   2.77368   2.79988
 Alpha virt. eigenvalues --    2.81351   2.81647   2.82207   2.83175   2.83583
 Alpha virt. eigenvalues --    2.87662   2.91705   2.92379   2.97020   3.03978
 Alpha virt. eigenvalues --    3.04299   3.07287   3.10371   3.15514   3.17190
 Alpha virt. eigenvalues --    3.23369   3.24266   3.29670   3.30263   3.31902
 Alpha virt. eigenvalues --    3.34398   3.38725   3.42628   3.44598   3.45777
 Alpha virt. eigenvalues --    3.50498   3.54556   3.55826   3.62654   3.75967
 Alpha virt. eigenvalues --    3.82196   3.98588   4.00437   4.01595   4.03790
 Alpha virt. eigenvalues --    4.11484   4.11840   4.19784   4.54946   4.79699
 Alpha virt. eigenvalues --    4.79826   7.81119   7.83950  17.19636  17.21067
 Alpha virt. eigenvalues --   17.43715  17.51189  17.52288  17.53379  23.35373
 Alpha virt. eigenvalues --   23.53812  23.68918  23.85655  23.85823  23.90157
 Alpha virt. eigenvalues --   23.92087  23.98132  24.01115  24.03741  24.07284
 Alpha virt. eigenvalues --   24.07407  24.14660  24.14770 188.92517 188.95387
          Condensed to atoms (all electrons):
              25         26         27         28         29         30
    25  S   15.370515   0.009508  -0.061459   0.005886  -0.000104   0.009383
    26  S    0.009508  15.370517  -0.000169  -0.000038   0.000327   0.002373
    27  C   -0.061459  -0.000169   4.861978   0.512589  -0.040621  -0.053509
    28  C    0.005886  -0.000038   0.512589   4.879657   0.492491  -0.051838
    29  C   -0.000104   0.000327  -0.040621   0.492491   4.878933   0.511518
    30  C    0.009383   0.002373  -0.053509  -0.051838   0.511518   4.875450
    31  C    0.002373   0.009384  -0.000001   0.000000  -0.000000  -0.000001
    32  C    0.000327  -0.000104   0.000000  -0.000000   0.000000  -0.000000
    33  C   -0.000038   0.005887  -0.000000   0.000000  -0.000000   0.000000
    34  C   -0.000169  -0.061459   0.000000  -0.000000   0.000000  -0.000001
    35  C    0.008662   0.306199   0.000033  -0.000002   0.000002  -0.000301
    36  C   -0.070639  -0.088261  -0.000510   0.000027  -0.000018   0.000095
    37  C    0.316755  -0.092100  -0.000489  -0.000022  -0.000613   0.011534
    38  C   -0.092100   0.316755   0.017255  -0.001043   0.013325  -0.089214
    39  C   -0.088261  -0.070639   0.006580  -0.049992  -0.029888   0.486113
    40  C    0.306199   0.008663   0.443295  -0.047944  -0.054762  -0.045311
    41  H   -0.003185   0.000023   0.419541  -0.037064   0.007347  -0.000568
    42  H    0.000110  -0.000002   0.007001  -0.041820   0.411184  -0.038061
    43  H   -0.000642   0.003289  -0.000908   0.007555  -0.039507   0.419765
    44  H    0.003289  -0.000642  -0.000003   0.000000  -0.000000   0.000000
    45  H   -0.000002   0.000110   0.000000  -0.000000  -0.000000   0.000000
    46  H   -0.000003  -0.000371  -0.000000   0.000000   0.000000   0.000000
    47  H    0.000023  -0.003185   0.000000  -0.000000   0.000000  -0.000000
    48  H   -0.000371  -0.000003  -0.041208   0.413909  -0.042676   0.007627
              31         32         33         34         35         36
    25  S    0.002373   0.000327  -0.000038  -0.000169   0.008662  -0.070639
    26  S    0.009384  -0.000104   0.005887  -0.061459   0.306199  -0.088261
    27  C   -0.000001   0.000000  -0.000000   0.000000   0.000033  -0.000510
    28  C    0.000000  -0.000000   0.000000  -0.000000  -0.000002   0.000027
    29  C   -0.000000   0.000000  -0.000000   0.000000   0.000002  -0.000018
    30  C   -0.000001  -0.000000   0.000000  -0.000001  -0.000301   0.000095
    31  C    4.875450   0.511518  -0.051838  -0.053509  -0.045310   0.486112
    32  C    0.511518   4.878934   0.492491  -0.040620  -0.054763  -0.029888
    33  C   -0.051838   0.492491   4.879658   0.512587  -0.047944  -0.049992
    34  C   -0.053509  -0.040620   0.512587   4.861978   0.443294   0.006581
    35  C   -0.045310  -0.054763  -0.047944   0.443294   5.390439   0.412305
    36  C    0.486112  -0.029888  -0.049992   0.006581   0.412305   4.949779
    37  C   -0.089214   0.013325  -0.001043   0.017255  -0.096656   0.392919
    38  C    0.011534  -0.000613  -0.000022  -0.000489  -0.086688  -0.014504
    39  C    0.000095  -0.000018   0.000027  -0.000510   0.003451   0.021083
    40  C   -0.000301   0.000002  -0.000002   0.000033  -0.000008   0.003451
    41  H   -0.000000   0.000000  -0.000000   0.000000   0.000001  -0.000009
    42  H    0.000000  -0.000000  -0.000000   0.000000  -0.000000  -0.000000
    43  H    0.000000  -0.000000   0.000000  -0.000003  -0.000107   0.000013
    44  H    0.419765  -0.039507   0.007555  -0.000908   0.008942  -0.045793
    45  H   -0.038061   0.411184  -0.041820   0.007001   0.000281   0.007544
    46  H    0.007627  -0.042676   0.413909  -0.041208   0.008882  -0.000338
    47  H   -0.000568   0.007347  -0.037064   0.419542  -0.047522   0.007228
    48  H    0.000000   0.000000   0.000000  -0.000000  -0.000000  -0.000000
              37         38         39         40         41         42
    25  S    0.316755  -0.092100  -0.088261   0.306199  -0.003185   0.000110
    26  S   -0.092100   0.316755  -0.070639   0.008663   0.000023  -0.000002
    27  C   -0.000489   0.017255   0.006580   0.443295   0.419541   0.007001
    28  C   -0.000022  -0.001043  -0.049992  -0.047944  -0.037064  -0.041820
    29  C   -0.000613   0.013325  -0.029888  -0.054762   0.007347   0.411184
    30  C    0.011534  -0.089214   0.486113  -0.045311  -0.000568  -0.038061
    31  C   -0.089214   0.011534   0.000095  -0.000301  -0.000000   0.000000
    32  C    0.013325  -0.000613  -0.000018   0.000002   0.000000  -0.000000
    33  C   -0.001043  -0.000022   0.000027  -0.000002  -0.000000  -0.000000
    34  C    0.017255  -0.000489  -0.000510   0.000033   0.000000   0.000000
    35  C   -0.096656  -0.086688   0.003451  -0.000008   0.000001  -0.000000
    36  C    0.392919  -0.014504   0.021083   0.003451  -0.000009  -0.000000
    37  C    5.458994   0.363441  -0.014504  -0.086689  -0.000118   0.000016
    38  C    0.363441   5.458993   0.392920  -0.096656  -0.000333  -0.000469
    39  C   -0.014504   0.392920   4.949777   0.412306   0.007228   0.007544
    40  C   -0.086689  -0.096656   0.412306   5.390438  -0.047522   0.000281
    41  H   -0.000118  -0.000333   0.007228  -0.047522   0.565101  -0.000321
    42  H    0.000016  -0.000469   0.007544   0.000281  -0.000321   0.571824
    43  H    0.000092  -0.012024  -0.045793   0.008942   0.000064  -0.007644
    44  H   -0.012024   0.000092   0.000013  -0.000107   0.000000   0.000000
    45  H   -0.000469   0.000016  -0.000000  -0.000000  -0.000000   0.000000
    46  H   -0.000002   0.000010  -0.000000  -0.000000   0.000000   0.000000
    47  H   -0.000333  -0.000118  -0.000009   0.000001   0.000000  -0.000000
    48  H    0.000010  -0.000002  -0.000338   0.008882  -0.007754  -0.007454
              43         44         45         46         47         48
    25  S   -0.000642   0.003289  -0.000002  -0.000003   0.000023  -0.000371
    26  S    0.003289  -0.000642   0.000110  -0.000371  -0.003185  -0.000003
    27  C   -0.000908  -0.000003   0.000000  -0.000000   0.000000  -0.041208
    28  C    0.007555   0.000000  -0.000000   0.000000  -0.000000   0.413909
    29  C   -0.039507  -0.000000  -0.000000   0.000000   0.000000  -0.042676
    30  C    0.419765   0.000000   0.000000   0.000000  -0.000000   0.007627
    31  C    0.000000   0.419765  -0.038061   0.007627  -0.000568   0.000000
    32  C   -0.000000  -0.039507   0.411184  -0.042676   0.007347   0.000000
    33  C    0.000000   0.007555  -0.041820   0.413909  -0.037064   0.000000
    34  C   -0.000003  -0.000908   0.007001  -0.041208   0.419542  -0.000000
    35  C   -0.000107   0.008942   0.000281   0.008882  -0.047522  -0.000000
    36  C    0.000013  -0.045793   0.007544  -0.000338   0.007228  -0.000000
    37  C    0.000092  -0.012024  -0.000469  -0.000002  -0.000333   0.000010
    38  C   -0.012024   0.000092   0.000016   0.000010  -0.000118  -0.000002
    39  C   -0.045793   0.000013  -0.000000  -0.000000  -0.000009  -0.000338
    40  C    0.008942  -0.000107  -0.000000  -0.000000   0.000001   0.008882
    41  H    0.000064   0.000000  -0.000000   0.000000   0.000000  -0.007754
    42  H   -0.007644   0.000000   0.000000   0.000000  -0.000000  -0.007454
    43  H    0.571390   0.000000   0.000000   0.000000   0.000000  -0.000308
    44  H    0.000000   0.571390  -0.007644  -0.000308   0.000064   0.000000
    45  H    0.000000  -0.007644   0.571824  -0.007454  -0.000321   0.000000
    46  H    0.000000  -0.000308  -0.007454   0.570652  -0.007754  -0.000000
    47  H    0.000000   0.000064  -0.000321  -0.007754   0.565101   0.000000
    48  H   -0.000308   0.000000   0.000000  -0.000000   0.000000   0.570652
 Mulliken charges:
               1
     1  S    0.000000
     2  S    0.000000
     3  C    0.000000
     4  C    0.000000
     5  C    0.000000
     6  C    0.000000
     7  C    0.000000
     8  C    0.000000
     9  C    0.000000
    10  C    0.000000
    11  C    0.000000
    12  C    0.000000
    13  C    0.000000
    14  C    0.000000
    15  C    0.000000
    16  C    0.000000
    17  H    0.000000
    18  H    0.000000
    19  H    0.000000
    20  H    0.000000
    21  H    0.000000
    22  H    0.000000
    23  H    0.000000
    24  H    0.000000
    25  S    0.283942
    26  S    0.283941
    27  C   -0.069397
    28  C   -0.082349
    29  C   -0.106939
    30  C   -0.045054
    31  C   -0.045054
    32  C   -0.106939
    33  C   -0.082350
    34  C   -0.069397
    35  C   -0.203189
    36  C    0.012815
    37  C   -0.180066
    38  C   -0.180066
    39  C    0.012815
    40  C   -0.203190
    41  H    0.097567
    42  H    0.097812
    43  H    0.095826
    44  H    0.095826
    45  H    0.097812
    46  H    0.099035
    47  H    0.097567
    48  H    0.099035
 Sum of Mulliken charges =  -0.00000
 Mulliken charges with hydrogens summed into heavy atoms:
               1
     1  S    0.000000
     2  S    0.000000
     3  C    0.000000
     4  C    0.000000
     5  C    0.000000
     6  C    0.000000
     7  C    0.000000
     8  C    0.000000
     9  C    0.000000
    10  C    0.000000
    11  C    0.000000
    12  C    0.000000
    13  C    0.000000
    14  C    0.000000
    15  C    0.000000
    16  C    0.000000
    25  S    0.283942
    26  S    0.283941
    27  C    0.028169
    28  C    0.016685
    29  C   -0.009127
    30  C    0.050771
    31  C    0.050771
    32  C   -0.009127
    33  C    0.016685
    34  C    0.028170
    35  C   -0.203189
    36  C    0.012815
    37  C   -0.180066
    38  C   -0.180066
    39  C    0.012815
    40  C   -0.203190
         Mulliken charges condensed to fragments:
      1      0.000000
      2     -0.000000
 Electronic spatial extent (au):  <R**2>=           7125.2698
 Charge=             -0.0000 electrons
 Dipole moment (field-independent basis, Debye):
    X=              0.0000    Y=              0.0000    Z=             -0.0000  Tot=              0.0000
 Quadrupole moment (field-independent basis, Debye-Ang):
   XX=            -89.3528   YY=            -99.1188   ZZ=           -111.8044
   XY=             -2.5939   XZ=              2.3652   YZ=              4.4647
 Traceless Quadrupole moment (field-independent basis, Debye-Ang):
   XX=             10.7392   YY=              0.9732   ZZ=            -11.7124
   XY=             -2.5939   XZ=              2.3652   YZ=              4.4647
 Octapole moment (field-independent basis, Debye-Ang**2):
  XXX=           -205.4343  YYY=           -700.1158  ZZZ=             65.4813  XYY=            -88.1771
  XXY=           -214.3540  XXZ=             21.0692  XZZ=            -86.6082  YZZ=           -264.9830
  YYZ=             40.3745  XYZ=              9.4967
 Hexadecapole moment (field-independent basis, Debye-Ang**3):
 XXXX=          -4411.6899 YYYY=          -4562.5926 ZZZZ=           -313.2730 XXXY=           -154.0418
 XXXZ=            -43.4044 YYYX=           -221.9007 YYYZ=            101.2121 ZZZX=           -130.5196
 ZZZY=              6.2731 XXYY=          -1454.6315 XXZZ=           -945.4943 YYZZ=           -906.0969
 XXYZ=             58.2489 YYXZ=            -19.2118 ZZXY=            -46.7647
 N-N= 1.192162449365D+03 E-N=-5.527361829616D+03  KE= 1.331399874311D+03
 CPIOFr:  IOpCl= 0 IRwI=-1 IRwCP=  731 ICalc=  4 LCPTot=      762852 Len1MO=     1998050 IndFrg=    10753102
 CPIOFr:  IOpCl= 0 IRwI=-2 IRwCP=  731 ICalc=  0 LCPTot=      762852 Len1MO=     1998050 IndFrg=     2760902
 Counterpoise corrected energy =   -2669.806999650405
                   BSSE energy =       0.003399831860
              sum of fragments =   -2669.794633556045
           complexation energy =      -9.89 kcal/mole (raw)
           complexation energy =      -7.76 kcal/mole (corrected)
 1\1\GINC-CMDELL86\SP\RB3LYP\6-311G(d,p)\C28H16S4\OHNO\14-Jul-2021\0\\#
 b3lyp/6-311G** EmpiricalDispersion=GD3 counterpoise=2\\BTBT dimer b3ly
 p/6-311G**\\0,1\S,0,1.6203193263,0.9333401805,-0.9655543418\S,0,-1.620
 3215046,-0.9333388826,0.9655526073\C,0,0.7607010875,0.432046614,-3.596
 4890673\C,0,-0.1990145233,-0.0970811798,-4.456605144\C,0,-1.3358730484
 ,-0.7617409166,-3.9518894629\C,0,-1.5484008838,-0.8661903564,-2.581713
 2069\C,0,1.5483981093,0.866196593,2.581713372\C,0,1.3358706776,0.76174
 32744,3.9518892671\C,0,0.19901583,0.0970776341,4.4566055645\C,0,-0.760
 6973501,-0.4320550248,3.5964887592\C,0,-0.5418750743,-0.3467155574,2.2
 136722139\C,0,0.5874862401,0.3462927079,1.6917199634\C,0,0.5677107081,
 0.3035896045,0.2629304608\C,0,-0.5677107915,-0.3035871419,-0.262930279
 8\C,0,-0.5874867399,-0.3462921765,-1.6917195198\C,0,0.5418798052,0.346
 711325,-2.2136710574\H,0,1.6351619757,0.9441051055,-3.9892419249\H,0,-
 2.069015815,-1.1685664408,-4.6425298944\H,0,-2.4232632237,-1.382224776
 ,-2.1937042881\H,0,2.4232592385,1.3822352091,2.193705084\H,0,2.0690081
 682,1.1685767873,4.6425301772\H,0,0.0489377359,0.0282464127,5.53031334
 02\H,0,-1.6351576368,-0.9441151195,3.9892396112\H,0,-0.0489323111,-0.0
 282538749,-5.5303122329\S,0,-4.5453193263,4.9483401805,-0.9655543418\S
 ,0,-1.3046784954,3.0816611174,0.9655526073\C,0,-3.6857010875,4.4470466
 14,-3.5964890673\C,0,-2.7259854767,3.9179188202,-4.456605144\C,0,-1.58
 91269516,3.2532590834,-3.9518894629\C,0,-1.3765991162,3.1488096436,-2.
 5817132069\C,0,-4.4733981093,4.881196593,2.581713372\C,0,-4.2608706776
 ,4.7767432744,3.9518892671\C,0,-3.12401583,4.1120776341,4.4566055645\C
 ,0,-2.1643026499,3.5829449752,3.5964887592\C,0,-2.3831249257,3.6682844
 426,2.2136722139\C,0,-3.5124862401,4.3612927079,1.6917199634\C,0,-3.49
 27107081,4.3185896045,0.2629304608\C,0,-2.3572892085,3.7114128581,-0.2
 629302798\C,0,-2.3375132601,3.6687078235,-1.6917195198\C,0,-3.46687980
 52,4.361711325,-2.2136710574\H,0,-4.5601619757,4.9591051055,-3.9892419
 249\H,0,-0.855984185,2.8464335592,-4.6425298944\H,0,-0.5017367763,2.63
 2775224,-2.1937042881\H,0,-5.3482592385,5.3972352091,2.193705084\H,0,-
 4.9940081682,5.1835767873,4.6425301772\H,0,-2.9739377359,4.0432464127,
 5.5303133402\H,0,-1.2898423632,3.0708848805,3.9892396112\H,0,-2.876067
 6889,3.9867461251,-5.5303122329\\Version=ES64L-G16RevA.03\State=1-A\HF
 =-1334.8973159\RMSD=8.833e-09\Dipole=0.1128306,-0.343481,-0.0247795\Qu
 adrupole=-2.5939616,-13.7138537,16.3078153,1.156806,0.3474345,0.848177
 8\PG=C01 [X(C28H16S4)]\\@


 THERE IS MUCH PLEASURE TO BE GAINED FROM USELESS KNOWLEDGE

                                       -- BERTRAND RUSSELL
 Job cpu time:       0 days  2 hours 22 minutes 19.9 seconds.
 Elapsed time:       0 days  0 hours  3 minutes 36.4 seconds.
 File lengths (MBytes):  RWF=    395 Int=      0 D2E=      0 Chk=    113 Scr=      2
 Normal termination of Gaussian 16 at Wed Jul 14 11:42:34 2021.
