 Entering Gaussian System, Link 0=g16
 Initial command:
 /home/g03/g16/l1.exe "/home/scr/21098/Gau-194175.inp" -scrdir="/home/scr/21098/"
 Entering Link 1 = /home/g03/g16/l1.exe PID=    194176.
  
 Copyright (c) 1988,1990,1992,1993,1995,1998,2003,2009,2016,
            Gaussian, Inc.  All Rights Reserved.
  
 This is part of the Gaussian(R) 16 program.  It is based on
 the Gaussian(R) 09 system (copyright 2009, Gaussian, Inc.),
 the Gaussian(R) 03 system (copyright 2003, Gaussian, Inc.),
 the Gaussian(R) 98 system (copyright 1998, Gaussian, Inc.),
 the Gaussian(R) 94 system (copyright 1995, Gaussian, Inc.),
 the Gaussian 92(TM) system (copyright 1992, Gaussian, Inc.),
 the Gaussian 90(TM) system (copyright 1990, Gaussian, Inc.),
 the Gaussian 88(TM) system (copyright 1988, Gaussian, Inc.),
 the Gaussian 86(TM) system (copyright 1986, Carnegie Mellon
 University), and the Gaussian 82(TM) system (copyright 1983,
 Carnegie Mellon University). Gaussian is a federally registered
 trademark of Gaussian, Inc.
  
 This software contains proprietary and confidential information,
 including trade secrets, belonging to Gaussian, Inc.
  
 This software is provided under written license and may be
 used, copied, transmitted, or stored only in accord with that
 written license.
  
 The following legend is applicable only to US Government
 contracts under FAR:
  
                    RESTRICTED RIGHTS LEGEND
  
 Use, reproduction and disclosure by the US Government is
 subject to restrictions as set forth in subparagraphs (a)
 and (c) of the Commercial Computer Software - Restricted
 Rights clause in FAR 52.227-19.
  
 Gaussian, Inc.
 340 Quinnipiac St., Bldg. 40, Wallingford CT 06492
  
  
 ---------------------------------------------------------------
 Warning -- This program may not be used in any manner that
 competes with the business of Gaussian, Inc. or will provide
 assistance to any competitor of Gaussian, Inc.  The licensee
 of this program is prohibited from giving any competitor of
 Gaussian, Inc. access to this program.  By using this program,
 the user acknowledges that Gaussian, Inc. is engaged in the
 business of creating and licensing software in the field of
 computational chemistry and represents and warrants to the
 licensee that it is not a competitor of Gaussian, Inc. and that
 it will not use this program in any manner prohibited above.
 ---------------------------------------------------------------
  

 Cite this work as:
 Gaussian 16, Revision A.03,
 M. J. Frisch, G. W. Trucks, H. B. Schlegel, G. E. Scuseria, 
 M. A. Robb, J. R. Cheeseman, G. Scalmani, V. Barone, 
 G. A. Petersson, H. Nakatsuji, X. Li, M. Caricato, A. V. Marenich, 
 J. Bloino, B. G. Janesko, R. Gomperts, B. Mennucci, H. P. Hratchian, 
 J. V. Ortiz, A. F. Izmaylov, J. L. Sonnenberg, D. Williams-Young, 
 F. Ding, F. Lipparini, F. Egidi, J. Goings, B. Peng, A. Petrone, 
 T. Henderson, D. Ranasinghe, V. G. Zakrzewski, J. Gao, N. Rega, 
 G. Zheng, W. Liang, M. Hada, M. Ehara, K. Toyota, R. Fukuda, 
 J. Hasegawa, M. Ishida, T. Nakajima, Y. Honda, O. Kitao, H. Nakai, 
 T. Vreven, K. Throssell, J. A. Montgomery, Jr., J. E. Peralta, 
 F. Ogliaro, M. J. Bearpark, J. J. Heyd, E. N. Brothers, K. N. Kudin, 
 V. N. Staroverov, T. A. Keith, R. Kobayashi, J. Normand, 
 K. Raghavachari, A. P. Rendell, J. C. Burant, S. S. Iyengar, 
 J. Tomasi, M. Cossi, J. M. Millam, M. Klene, C. Adamo, R. Cammi, 
 J. W. Ochterski, R. L. Martin, K. Morokuma, O. Farkas, 
 J. B. Foresman, and D. J. Fox, Gaussian, Inc., Wallingford CT, 2016.
 
 ******************************************
 Gaussian 16:  ES64L-G16RevA.03 25-Dec-2016
                14-Jul-2021 
 ******************************************
 %NProcShared=40
 Will use up to   40 processors via shared memory.
 %Mem=15GB
 ------------------------------------------------------
 #b3lyp/6-311G** EmpiricalDispersion=GD3 counterpoise=2
 ------------------------------------------------------
 1/38=1,62=2,172=1/1;
 2/12=2,17=6,18=5,40=1/2;
 1/38=1,53=2,62=2,63=1/22;
 3/5=4,6=6,7=101,11=2,25=1,30=1,74=-5,124=31/1,2,3;
 4//1;
 5/5=2,38=5/2;
 6/7=2,8=2,9=2,10=2,28=1/1;
 1/53=2,62=2,63=1/22;
 3/5=7,6=11,7=101,11=2,25=1,30=1,74=-5,82=7,124=31/1,2,3;
 4//1;
 5/5=2,38=5/2;
 6/7=2,8=2,9=2,10=2,28=1/1;
 1/53=2,62=2,63=1/22(-4);
 99/5=1,9=1/99;
 -------------------------
 BTBT dimer b3lyp/6-311G**
 -------------------------
 Symbolic Z-matrix:
 Charge =  0 Multiplicity = 1 in supermolecule
 Charge =  0 Multiplicity = 1 in fragment      1.
 Charge =  0 Multiplicity = 1 in fragment      2.
 S                     1.62032   0.93334  -0.96555    
 S                    -1.62032  -0.93334   0.96555    
 C                     0.7607    0.43205  -3.59649    
 C                    -0.19901  -0.09708  -4.45661    
 C                    -1.33587  -0.76174  -3.95189    
 C                    -1.5484   -0.86619  -2.58171    
 C                     1.5484    0.8662    2.58171    
 C                     1.33587   0.76174   3.95189    
 C                     0.19902   0.09708   4.45661    
 C                    -0.7607   -0.43206   3.59649    
 C                    -0.54188  -0.34672   2.21367    
 C                     0.58749   0.34629   1.69172    
 C                     0.56771   0.30359   0.26293    
 C                    -0.56771  -0.30359  -0.26293    
 C                    -0.58749  -0.34629  -1.69172    
 C                     0.54188   0.34671  -2.21367    
 H                     1.63516   0.94411  -3.98924    
 H                    -2.06902  -1.16857  -4.64253    
 H                    -2.42326  -1.38222  -2.1937     
 H                     2.42326   1.38224   2.19371    
 H                     2.06901   1.16858   4.64253    
 H                     0.04894   0.02825   5.53031    
 H                    -1.63516  -0.94412   3.98924    
 H                    -0.04893  -0.02825  -5.53031    
 S                     1.30468   4.96834  -0.96555    
 S                     4.54532   3.10166   0.96555    
 C                     2.1643    4.46705  -3.59649    
 C                     3.12401   3.93792  -4.45661    
 C                     4.26087   3.27326  -3.95189    
 C                     4.4734    3.16881  -2.58171    
 C                     1.3766    4.9012    2.58171    
 C                     1.58913   4.79674   3.95189    
 C                     2.72598   4.13208   4.45661    
 C                     3.6857    3.60294   3.59649    
 C                     3.46688   3.68828   2.21367    
 C                     2.33751   4.38129   1.69172    
 C                     2.35729   4.33859   0.26293    
 C                     3.49271   3.73141  -0.26293    
 C                     3.51249   3.68871  -1.69172    
 C                     2.38312   4.38171  -2.21367    
 H                     1.28984   4.97911  -3.98924    
 H                     4.99402   2.86643  -4.64253    
 H                     5.34826   2.65278  -2.1937     
 H                     0.50174   5.41724   2.19371    
 H                     0.85599   5.20358   4.64253    
 H                     2.87606   4.06325   5.53031    
 H                     4.56016   3.09088   3.98924    
 H                     2.97393   4.00675  -5.53031    
 
                          Input orientation:                          
 ---------------------------------------------------------------------
 Center     Atomic      Atomic             Coordinates (Angstroms)
 Number     Number       Type             X           Y           Z
 ---------------------------------------------------------------------
      1         16           0        1.620319    0.933340   -0.965554
      2         16           0       -1.620322   -0.933339    0.965553
      3          6           0        0.760701    0.432047   -3.596489
      4          6           0       -0.199015   -0.097081   -4.456605
      5          6           0       -1.335873   -0.761741   -3.951889
      6          6           0       -1.548401   -0.866190   -2.581713
      7          6           0        1.548398    0.866197    2.581713
      8          6           0        1.335871    0.761743    3.951889
      9          6           0        0.199016    0.097078    4.456606
     10          6           0       -0.760697   -0.432055    3.596489
     11          6           0       -0.541875   -0.346716    2.213672
     12          6           0        0.587486    0.346293    1.691720
     13          6           0        0.567711    0.303590    0.262930
     14          6           0       -0.567711   -0.303587   -0.262930
     15          6           0       -0.587487   -0.346292   -1.691720
     16          6           0        0.541880    0.346711   -2.213671
     17          1           0        1.635162    0.944105   -3.989242
     18          1           0       -2.069016   -1.168566   -4.642530
     19          1           0       -2.423263   -1.382225   -2.193704
     20          1           0        2.423259    1.382235    2.193705
     21          1           0        2.069008    1.168577    4.642530
     22          1           0        0.048938    0.028246    5.530313
     23          1           0       -1.635158   -0.944115    3.989240
     24          1           0       -0.048932   -0.028254   -5.530312
     25         16           0        1.304681    4.968340   -0.965554
     26         16           0        4.545322    3.101661    0.965553
     27          6           0        2.164299    4.467047   -3.596489
     28          6           0        3.124015    3.937919   -4.456605
     29          6           0        4.260873    3.273259   -3.951889
     30          6           0        4.473401    3.168810   -2.581713
     31          6           0        1.376602    4.901197    2.581713
     32          6           0        1.589129    4.796743    3.951889
     33          6           0        2.725984    4.132078    4.456606
     34          6           0        3.685697    3.602945    3.596489
     35          6           0        3.466875    3.688284    2.213672
     36          6           0        2.337514    4.381293    1.691720
     37          6           0        2.357289    4.338590    0.262930
     38          6           0        3.492711    3.731413   -0.262930
     39          6           0        3.512487    3.688708   -1.691720
     40          6           0        2.383120    4.381711   -2.213671
     41          1           0        1.289838    4.979105   -3.989242
     42          1           0        4.994016    2.866434   -4.642530
     43          1           0        5.348263    2.652775   -2.193704
     44          1           0        0.501741    5.417235    2.193705
     45          1           0        0.855992    5.203577    4.642530
     46          1           0        2.876062    4.063246    5.530313
     47          1           0        4.560158    3.090885    3.989240
     48          1           0        2.973932    4.006746   -5.530312
 ---------------------------------------------------------------------
                    Distance matrix (angstroms):
                    1          2          3          4          5
     1  S    0.000000
     2  S    4.208969   0.000000
     3  C    2.812838   5.324075   0.000000
     4  C    4.069297   5.667383   1.393137   0.000000
     5  C    4.531067   4.928650   2.438660   1.410304   0.000000
     6  C    3.986360   3.548630   2.836748   2.434665   1.390489
     7  C    3.548632   3.986363   6.243327   7.315687   7.325105
     8  C    4.928652   4.531069   7.577436   8.590473   8.481093
     9  C    5.667385   4.069299   8.079606   8.924206   8.590474
    10  C    5.324076   2.812839   7.402719   8.079605   7.577436
    11  C    4.052297   1.750707   6.005094   6.683747   6.230315
    12  C    2.910752   2.653147   5.291740   6.214263   6.064435
    13  C    1.736014   2.609819   3.866376   4.798169   4.745868
    14  C    2.609817   1.736015   3.663120   4.214913   3.795840
    15  C    2.653146   2.910750   2.459994   2.803143   2.416826
    16  C    1.750703   4.052296   1.402623   2.403462   2.788553
    17  H    3.023743   6.218759   1.086803   2.160255   3.426128
    18  H    5.616881   5.630919   3.415181   2.163228   1.086273
    19  H    4.818792   3.290459   3.923903   3.423390   2.158387
    20  H    3.290462   4.818795   6.098632   7.300091   7.516385
    21  H    5.630921   5.616882   8.374699   9.462562   9.443696
    22  H    6.744237   4.954605   9.163416   9.990782   9.615298
    23  H    6.218758   3.023743   8.073242   8.608848   7.948859
    24  H    4.954602   6.744235   2.146405   1.086328   2.164633
    25  S    4.047327   6.864010   5.272162   6.333011   6.980297
    26  S    4.121459   7.368608   6.500955   7.882923   8.584612
    27  C    4.439010   8.018712   4.272155   5.211172   6.302201
    28  C    4.845207   8.696992   4.314648   5.227212   6.498626
    29  C    4.622331   8.744436   4.522168   5.612890   6.899623
    30  C    3.968547   8.157461   4.722688   6.001061   7.146627
    31  C    5.327888   6.755393   7.650021   8.775151   9.061697
    32  C    6.253648   7.214750   8.758703   9.891903  10.095648
    33  C    6.391732   7.532348   9.077714  10.290128  10.542814
    34  C    5.674928   7.460130   8.387439   9.676441  10.062041
    35  C    4.594232   6.985469   7.189189   8.500608   8.993512
    36  C    4.411785   6.666115   6.785870   8.018211   8.473187
    37  C    3.694323   6.641408   5.718854   6.963037   7.577435
    38  C    3.439294   7.029380   5.427919   6.772969   7.557253
    39  C    3.420477   7.400685   4.669723   5.979300   6.958553
    40  C    3.745788   7.374603   4.488238   5.635402   6.580837
    41  H    5.061632   8.244757   4.594560   5.310629   6.312929
    42  H    5.351526   9.467751   4.994136   5.982019   7.328583
    43  H    4.285134   8.449988   5.286319   6.592019   7.708944
    44  H    5.597986   6.807444   7.644967   8.667489   8.906453
    45  H    7.090115   7.570603   9.521450  10.583207  10.688935
    46  H    7.319119   8.125292  10.047830  11.247354  11.442599
    47  H    6.152043   7.970909   8.890926  10.205153  10.614492
    48  H    5.667019   9.365248   4.627801   5.297342   6.618482
                    6          7          8          9         10
     6  C    0.000000
     7  C    6.265166   0.000000
     8  C    7.325104   1.390489   0.000000
     9  C    7.315687   2.434666   1.410304   0.000000
    10  C    6.243327   2.836750   2.438660   1.393137   0.000000
    11  C    4.927339   2.444556   2.788550   2.403460   1.402622
    12  C    4.928931   1.409163   2.416825   2.803143   2.459994
    13  C    3.733405   2.579734   3.795839   4.214913   3.663121
    14  C    2.579734   3.733404   4.745867   4.798168   3.866376
    15  C    1.409162   4.928931   6.064435   6.214263   5.291739
    16  C    2.444557   4.927338   6.230314   6.683746   6.005093
    17  H    3.923440   6.571990   7.948861   8.608851   8.073244
    18  H    2.146960   8.331605   9.443696   9.462562   8.374698
    19  H    1.087302   6.605612   7.516383   7.300089   6.098630
    20  H    6.605613   1.087303   2.158387   3.423391   3.923905
    21  H    8.331604   2.146959   1.086273   2.163227   3.415181
    22  H    8.316038   3.412445   2.164633   1.086328   2.146407
    23  H    6.571988   3.923441   3.426129   2.160256   1.086802
    24  H    3.412445   8.316037   9.615296   9.990781   9.163414
    25  S    6.692816   5.428636   6.471297   7.372348   7.364937
    26  S    8.090760   4.073184   4.969305   6.332878   6.896580
    27  C    6.577030   7.177440   8.449472   9.370768   9.181271
    28  C    6.958890   7.839386   9.164515  10.136716   9.951883
    29  C    7.263614   7.472579   8.793922   9.863549   9.794056
    30  C    7.248677   6.365426   7.637148   8.788847   8.861839
    31  C    8.275226   4.038656   4.360518   5.289753   5.834500
    32  C    9.197873   4.162720   4.042940   4.926866   5.743547
    33  C    9.632808   3.945619   3.680531   4.760966   5.807586
    34  C    9.248737   3.617680   3.704109   5.018750   6.004303
    35  C    8.300118   3.432228   4.015871   5.348497   6.063147
    36  C    7.803758   3.710888   4.383240   5.529219   6.032858
    37  C    7.101841   4.253066   5.238849   6.343144   6.602538
    38  C    7.206075   4.481274   5.588882   6.806676   7.093734
    39  C    6.866715   5.485111   6.719754   7.853712   7.950216
    40  C    6.567555   6.004275   7.225997   8.223198   8.173977
    41  H    6.648625   7.756309   8.991653   9.816131   9.540894
    42  H    7.809140   8.250025   9.574747  10.651555  10.577248
    43  H    7.752267   6.358888   7.579157   8.790504   8.964481
    44  H    8.154087   4.685936   5.045849   5.789338   6.146198
    45  H    9.737190   4.851727   4.520747   5.151943   5.955521
    46  H   10.472831   4.547314   3.970332   4.904072   6.097002
    47  H    9.805629   4.000133   3.977728   5.310449   6.393501
    48  H    7.272637   8.814769  10.155069  11.078095  10.814292
                   11         12         13         14         15
    11  C    0.000000
    12  C    1.424132   0.000000
    13  C    2.336551   1.429564   0.000000
    14  C    2.477113   2.361669   1.390818   0.000000
    15  C    3.905658   3.647999   2.361670   1.429564   0.000000
    16  C    4.610503   3.905657   2.477112   2.336551   1.424133
    17  H    6.699392   5.807610   4.430653   4.504973   3.447304
    18  H    7.072136   7.033813   5.760478   4.709883   3.402697
    19  H    4.902741   5.210461   4.221724   2.886940   2.166846
    20  H    3.432447   2.166848   2.886941   4.221724   5.210463
    21  H    3.874555   3.402696   4.709882   5.760477   7.033812
    22  H    3.389656   3.889214   5.300025   5.835413   7.259688
    23  H    2.169053   3.447303   4.504972   4.430651   5.807607
    24  H    7.766190   7.259688   5.835412   5.300024   3.889214
    25  S    6.462745   5.379479   4.879774   5.638506   5.687964
    26  S    6.271258   4.876867   4.913682   6.264821   6.730171
    27  C    8.015838   6.887097   5.897337   6.429264   5.862483
    28  C    8.734383   7.558813   6.482056   7.014707   6.306687
    29  C    8.613057   7.342427   6.342168   7.051062   6.458801
    30  C    7.778665   6.428776   5.617464   6.545770   6.225802
    31  C    5.599696   4.707647   5.212394   6.241965   7.046702
    32  C    5.832473   5.090989   5.902554   6.959169   7.939697
    33  C    5.980739   5.152663   6.074733   7.266193   8.296794
    34  C    5.948476   4.881889   5.632069   6.946048   7.862679
    35  C    5.687821   4.442097   4.864844   6.192454   6.925875
    36  C    5.560340   4.398161   4.669187   5.848853   6.507945
    37  C    5.844881   4.594788   4.414048   5.511983   5.868601
    38  C    6.248406   4.870321   4.536753   5.724356   5.942822
    39  C    6.926368   5.583460   4.894016   5.884545   5.752478
    40  C    7.107390   5.895845   5.104933   5.870674   5.608115
    41  H    8.378286   7.364073   6.361044   6.726271   6.096131
    42  H    9.379655   8.117348   7.086881   7.756464   7.083930
    43  H    7.944535   6.563641   5.865783   6.889609   6.669297
    44  H    5.857701   5.096450   5.466408   6.317166   7.035708
    45  H    6.217647   5.689691   6.578288   7.511280   8.544437
    46  H    6.490776   5.812755   6.870868   8.030596   9.143192
    47  H    6.403161   5.347289   6.131397   7.476525   8.401531
    48  H    9.554205   8.441078   7.284568   7.672517   6.809364
                   16         17         18         19         20
    16  C    0.000000
    17  H    2.169054   0.000000
    18  H    3.874558   4.314058   0.000000
    19  H    3.432447   5.010647   2.483523   0.000000
    20  H    4.902740   6.248351   8.568619   7.097914   0.000000
    21  H    7.072134   8.645583  10.430619   8.568617   2.483523
    22  H    7.766190   9.694165  10.459676   8.231747   4.313194
    23  H    6.699390   8.827034   8.645580   6.248347   5.010648
    24  H    3.389656   2.481240   2.483789   4.313193   8.231747
    25  S    4.847588   5.044440   7.909716   7.465627   4.908389
    26  S    5.807302   6.137920   9.666173   8.868332   2.994651
    27  C    4.639137   3.584042   7.125678   7.564886   6.565780
    28  C    4.959329   3.376097   7.285487   8.012299   7.158855
    29  C    5.041527   3.510087   7.763652   8.333212   6.687386
    30  C    4.853509   3.871182   8.115603   8.272028   5.495412
    31  C    6.666019   7.674821  10.045098   8.759279   3.691765
    32  C    7.675523   8.826466  11.082914   9.594126   3.930121
    33  C    7.974453   9.093151  11.570787  10.057281   3.574073
    34  C    7.365094   8.295627  11.124993   9.782518   2.914293
    35  C    6.270811   7.025798  10.061938   8.934694   2.531283
    36  C    5.895272   6.676892   9.504797   8.424942   3.041987
    37  C    5.036304   5.488621   8.601423   7.849615   3.531611
    38  C    4.895814   5.010486   8.609500   8.054559   3.563344
    39  C    4.501764   4.041757   7.965775   7.823009   4.647877
    40  C    4.435244   3.940714   7.518408   7.504977   5.331363
    41  H    5.017087   4.049750   7.035805   7.581398   7.242303
    42  H    5.663027   3.924797   8.134349   8.891787   7.452902
    43  H    5.331008   4.464373   8.695713   8.756589   5.423954
    44  H    6.718392   7.715074   9.834413   8.604514   4.469168
    45  H    8.408050   9.657002  11.634957  10.042928   4.801638
    46  H    8.901142  10.094098  12.462440  10.834964   4.304162
    47  H    7.883727   8.764727  11.687442  10.344355   3.272577
    48  H    5.505528   3.680621   7.280340   8.324883   8.176291
                   21         22         23         24         25
    21  H    0.000000
    22  H    2.483787   0.000000
    23  H    4.314058   2.481244   0.000000
    24  H   10.459675  11.061203   9.694162   0.000000
    25  S    6.817112   8.256980   8.255287   6.901828   0.000000
    26  S    4.836229   7.106362   7.981811   8.549842   4.208969
    27  C    8.875270  10.367074  10.062794   5.370828   2.812838
    28  C    9.569564  11.157068  10.854320   5.191432   4.069297
    29  C    9.115811  10.871186  10.752253   5.653833   4.531067
    30  C    7.872212   9.759303   9.869552   6.274309   3.986360
    31  C    4.319588   5.848297   6.724544   9.598781   3.548632
    32  C    3.724360   5.253777   6.584442  10.764571   4.928652
    33  C    3.041138   5.016060   6.708630  11.169022   5.667385
    34  C    3.103874   5.453821   7.010100  10.508642   5.324076
    35  C    3.768595   6.006520   7.116355   9.281317   4.052297
    36  C    4.370460   6.238701   7.029985   8.791870   2.910752
    37  C    5.414146   7.186993   7.598156   7.643356   1.736014
    38  C    5.714770   7.689908   8.138584   7.377238   2.609817
    39  C    6.968315   8.806413   8.957376   6.421394   2.653146
    40  C    7.578284   9.185334   9.109725   6.030156   1.750703
    41  H    9.467562  10.801517  10.358393   5.407481   3.023743
    42  H    9.881838  11.661726  11.531421   5.882066   5.616881
    43  H    7.725960   9.727870   9.996729   6.888439   4.818792
    44  H    5.148220   6.354462   6.946730   9.466627   3.290462
    45  H    4.213387   5.312583   6.665338  11.475089   5.630921
    46  H    3.133466   4.926851   6.913731  12.150449   6.744237
    47  H    3.213702   5.666195   7.393454  11.026994   6.218758
    48  H   10.600038  12.112865  11.678039   5.041720   4.954602
                   26         27         28         29         30
    26  S    0.000000
    27  C    5.324075   0.000000
    28  C    5.667383   1.393137   0.000000
    29  C    4.928650   2.438660   1.410304   0.000000
    30  C    3.548630   2.836748   2.434665   1.390489   0.000000
    31  C    3.986363   6.243327   7.315687   7.325105   6.265166
    32  C    4.531069   7.577436   8.590473   8.481093   7.325104
    33  C    4.069299   8.079606   8.924206   8.590474   7.315687
    34  C    2.812839   7.402719   8.079605   7.577436   6.243327
    35  C    1.750707   6.005094   6.683747   6.230315   4.927339
    36  C    2.653147   5.291740   6.214263   6.064435   4.928931
    37  C    2.609819   3.866376   4.798169   4.745868   3.733405
    38  C    1.736015   3.663120   4.214913   3.795840   2.579734
    39  C    2.910750   2.459994   2.803143   2.416826   1.409162
    40  C    4.052296   1.402623   2.403462   2.788553   2.444557
    41  H    6.218759   1.086803   2.160255   3.426128   3.923440
    42  H    5.630919   3.415181   2.163228   1.086273   2.146960
    43  H    3.290459   3.923903   3.423390   2.158387   1.087302
    44  H    4.818795   6.098632   7.300091   7.516385   6.605613
    45  H    5.616882   8.374699   9.462562   9.443696   8.331604
    46  H    4.954605   9.163416   9.990782   9.615298   8.316038
    47  H    3.023743   8.073242   8.608848   7.948859   6.571988
    48  H    6.744235   2.146405   1.086328   2.164633   3.412445
                   31         32         33         34         35
    31  C    0.000000
    32  C    1.390489   0.000000
    33  C    2.434666   1.410304   0.000000
    34  C    2.836750   2.438660   1.393137   0.000000
    35  C    2.444556   2.788550   2.403460   1.402622   0.000000
    36  C    1.409163   2.416825   2.803143   2.459994   1.424132
    37  C    2.579734   3.795839   4.214913   3.663121   2.336551
    38  C    3.733404   4.745867   4.798168   3.866376   2.477113
    39  C    4.928931   6.064435   6.214263   5.291739   3.905658
    40  C    4.927338   6.230314   6.683746   6.005093   4.610503
    41  H    6.571990   7.948861   8.608851   8.073244   6.699392
    42  H    8.331605   9.443696   9.462562   8.374698   7.072136
    43  H    6.605612   7.516383   7.300089   6.098630   4.902741
    44  H    1.087303   2.158387   3.423391   3.923905   3.432447
    45  H    2.146959   1.086273   2.163227   3.415181   3.874555
    46  H    3.412445   2.164633   1.086328   2.146407   3.389656
    47  H    3.923441   3.426129   2.160256   1.086802   2.169053
    48  H    8.316037   9.615296   9.990781   9.163414   7.766190
                   36         37         38         39         40
    36  C    0.000000
    37  C    1.429564   0.000000
    38  C    2.361669   1.390818   0.000000
    39  C    3.647999   2.361670   1.429564   0.000000
    40  C    3.905657   2.477112   2.336551   1.424133   0.000000
    41  H    5.807610   4.430653   4.504973   3.447304   2.169054
    42  H    7.033813   5.760478   4.709883   3.402697   3.874558
    43  H    5.210461   4.221724   2.886940   2.166846   3.432447
    44  H    2.166848   2.886941   4.221724   5.210463   4.902740
    45  H    3.402696   4.709882   5.760477   7.033812   7.072134
    46  H    3.889214   5.300025   5.835413   7.259688   7.766190
    47  H    3.447303   4.504972   4.430651   5.807607   6.699390
    48  H    7.259688   5.835412   5.300024   3.889214   3.389656
                   41         42         43         44         45
    41  H    0.000000
    42  H    4.314058   0.000000
    43  H    5.010647   2.483523   0.000000
    44  H    6.248351   8.568619   7.097914   0.000000
    45  H    8.645583  10.430619   8.568617   2.483523   0.000000
    46  H    9.694165  10.459676   8.231747   4.313194   2.483787
    47  H    8.827034   8.645580   6.248347   5.010648   4.314058
    48  H    2.481240   2.483789   4.313193   8.231747  10.459675
                   46         47         48
    46  H    0.000000
    47  H    2.481244   0.000000
    48  H   11.061203   9.694162   0.000000
 Stoichiometry    C28H16S4
 Framework group  C1[X(C28H16S4)]
 Deg. of freedom   138
 Full point group                 C1      NOp   1
 Largest Abelian subgroup         C1      NOp   1
 Largest concise Abelian subgroup C1      NOp   1
                         Standard orientation:                         
 ---------------------------------------------------------------------
 Center     Atomic      Atomic             Coordinates (Angstroms)
 Number     Number       Type             X           Y           Z
 ---------------------------------------------------------------------
      1         16           0        1.166867    0.362083   -0.799951
      2         16           0        0.463629    4.331228    0.411149
      3          6           0        3.952124    0.393626   -0.408281
      4          6           0        5.090825    1.084854   -0.000369
      5          6           0        5.009933    2.427918    0.422234
      6          6           0        3.783999    3.081176    0.483878
      7          6           0       -2.153506    1.612132   -0.872676
      8          6           0       -3.379439    2.265393   -0.811035
      9          6           0       -3.460331    3.608459   -0.388438
     10          6           0       -2.321628    4.299689    0.019468
     11          6           0       -1.079947    3.652069   -0.059054
     12          6           0       -0.988765    2.287759   -0.457169
     13          6           0        0.376465    1.864260   -0.435979
     14          6           0        1.254028    2.829049    0.047177
     15          6           0        2.619259    2.405552    0.068365
     16          6           0        2.710441    1.041243   -0.329757
     17          1           0        4.018413   -0.641503   -0.732712
     18          1           0        5.912230    2.946869    0.732944
     19          1           0        3.723316    4.117846    0.806150
     20          1           0       -2.092825    0.575460   -1.194945
     21          1           0       -4.281737    1.746439   -1.121735
     22          1           0       -4.427634    4.100880   -0.344227
     23          1           0       -2.387915    5.334817    0.343898
     24          1           0        6.058129    0.592434   -0.044586
     25         16           0        0.166963   -2.326303    2.055505
     26         16           0       -1.797457   -2.367011   -1.666701
     27          6           0        2.617676   -3.358421    1.138557
     28          6           0        3.382879   -3.854710    0.085471
     29          6           0        2.859548   -3.918355   -1.222594
     30          6           0        1.550903   -3.528071   -1.484486
     31          6           0       -3.181400   -1.165246    1.873292
     32          6           0       -4.490044   -0.774960    1.611398
     33          6           0       -5.013373   -0.838597    0.303332
     34          6           0       -4.248168   -1.334882   -0.749756
     35          6           0       -2.921327   -1.711739   -0.495159
     36          6           0       -2.390624   -1.678618    0.825980
     37          6           0       -1.033089   -2.126586    0.817065
     38          6           0       -0.597406   -2.566727   -0.428259
     39          6           0        0.760128   -3.014694   -0.437176
     40          6           0        1.290833   -2.981566    0.883964
     41          1           0        3.024286   -3.311522    2.145339
     42          1           0        3.476522   -4.306568   -2.027965
     43          1           0        1.149744   -3.573924   -2.494038
     44          1           0       -2.780243   -1.119397    2.882846
     45          1           0       -5.107021   -0.386755    2.416770
     46          1           0       -6.039084   -0.531877    0.119076
     47          1           0       -4.654775   -1.381779   -1.756538
     48          1           0        4.408591   -4.161425    0.269727
 ---------------------------------------------------------------------
 Rotational constants (GHZ):           0.1325630           0.1271285           0.0743036
 Counterpoise: doing full-system calculation.
 Standard basis: 6-311G(d,p) (5D, 7F)
 There are   736 symmetry adapted cartesian basis functions of A   symmetry.
 There are   704 symmetry adapted basis functions of A   symmetry.
   704 basis functions,  1208 primitive gaussians,   736 cartesian basis functions
   124 alpha electrons      124 beta electrons
       nuclear repulsion energy      3747.6007421011 Hartrees.
 NAtoms=   48 NActive=   48 NUniq=   48 SFac= 1.00D+00 NAtFMM=   60 NAOKFM=F Big=F
 Integral buffers will be    131072 words long.
 Raffenetti 2 integral format.
 Two-electron integral symmetry is turned on.
 Nuclear repulsion after empirical dispersion term =     3747.5396180289 Hartrees.
 One-electron integrals computed using PRISM.
 NBasis=   704 RedAO= T EigKep=  1.61D-04  NBF=   704
 NBsUse=   704 1.00D-06 EigRej= -1.00D+00 NBFU=   704
 ExpMin= 7.71D-02 ExpMax= 9.34D+04 ExpMxC= 3.17D+03 IAcc=3 IRadAn=         5 AccDes= 0.00D+00
 Harris functional with IExCor=  402 and IRadAn=       5 diagonalized for initial guess.
 HarFok:  IExCor=  402 AccDes= 0.00D+00 IRadAn=         5 IDoV= 1 UseB2=F ITyADJ=14
 ICtDFT=  3500011 ScaDFX=  1.000000  1.000000  1.000000  1.000000
 FoFCou: FMM=F IPFlag=           0 FMFlag=      100000 FMFlg1=           0
         NFxFlg=           0 DoJE=T BraDBF=F KetDBF=T FulRan=T
         wScrn=  0.000000 ICntrl=       500 IOpCl=  0 I1Cent=   200000004 NGrid=           0
         NMat0=    1 NMatS0=      1 NMatT0=    0 NMatD0=    1 NMtDS0=    0 NMtDT0=    0
 Petite list used in FoFCou.
 Requested convergence on RMS density matrix=1.00D-08 within 128 cycles.
 Requested convergence on MAX density matrix=1.00D-06.
 Requested convergence on             energy=1.00D-06.
 No special actions if energy rises.
 Integral accuracy reduced to 1.0D-05 until final iterations.
 Initial convergence to 1.0D-05 achieved.  Increase integral accuracy.
 SCF Done:  E(RB3LYP) =  -2669.81040604     A.U. after   15 cycles
            NFock= 15  Conv=0.75D-08     -V/T= 2.0026

 **********************************************************************

            Population analysis using the SCF density.

 **********************************************************************

 Orbital symmetries:
       Occupied  (A) (A) (A) (A) (A) (A) (A) (A) (A) (A) (A) (A)
                 (A) (A) (A) (A) (A) (A) (A) (A) (A) (A) (A) (A)
                 (A) (A) (A) (A) (A) (A) (A) (A) (A) (A) (A) (A)
                 (A) (A) (A) (A) (A) (A) (A) (A) (A) (A) (A) (A)
                 (A) (A) (A) (A) (A) (A) (A) (A) (A) (A) (A) (A)
                 (A) (A) (A) (A) (A) (A) (A) (A) (A) (A) (A) (A)
                 (A) (A) (A) (A) (A) (A) (A) (A) (A) (A) (A) (A)
                 (A) (A) (A) (A) (A) (A) (A) (A) (A) (A) (A) (A)
                 (A) (A) (A) (A) (A) (A) (A) (A) (A) (A) (A) (A)
                 (A) (A) (A) (A) (A) (A) (A) (A) (A) (A) (A) (A)
                 (A) (A) (A) (A)
       Virtual   (A) (A) (A) (A) (A) (A) (A) (A) (A) (A) (A) (A)
                 (A) (A) (A) (A) (A) (A) (A) (A) (A) (A) (A) (A)
                 (A) (A) (A) (A) (A) (A) (A) (A) (A) (A) (A) (A)
                 (A) (A) (A) (A) (A) (A) (A) (A) (A) (A) (A) (A)
                 (A) (A) (A) (A) (A) (A) (A) (A) (A) (A) (A) (A)
                 (A) (A) (A) (A) (A) (A) (A) (A) (A) (A) (A) (A)
                 (A) (A) (A) (A) (A) (A) (A) (A) (A) (A) (A) (A)
                 (A) (A) (A) (A) (A) (A) (A) (A) (A) (A) (A) (A)
                 (A) (A) (A) (A) (A) (A) (A) (A) (A) (A) (A) (A)
                 (A) (A) (A) (A) (A) (A) (A) (A) (A) (A) (A) (A)
                 (A) (A) (A) (A) (A) (A) (A) (A) (A) (A) (A) (A)
                 (A) (A) (A) (A) (A) (A) (A) (A) (A) (A) (A) (A)
                 (A) (A) (A) (A) (A) (A) (A) (A) (A) (A) (A) (A)
                 (A) (A) (A) (A) (A) (A) (A) (A) (A) (A) (A) (A)
                 (A) (A) (A) (A) (A) (A) (A) (A) (A) (A) (A) (A)
                 (A) (A) (A) (A) (A) (A) (A) (A) (A) (A) (A) (A)
                 (A) (A) (A) (A) (A) (A) (A) (A) (A) (A) (A) (A)
                 (A) (A) (A) (A) (A) (A) (A) (A) (A) (A) (A) (A)
                 (A) (A) (A) (A) (A) (A) (A) (A) (A) (A) (A) (A)
                 (A) (A) (A) (A) (A) (A) (A) (A) (A) (A) (A) (A)
                 (A) (A) (A) (A) (A) (A) (A) (A) (A) (A) (A) (A)
                 (A) (A) (A) (A) (A) (A) (A) (A) (A) (A) (A) (A)
                 (A) (A) (A) (A) (A) (A) (A) (A) (A) (A) (A) (A)
                 (A) (A) (A) (A) (A) (A) (A) (A) (A) (A) (A) (A)
                 (A) (A) (A) (A) (A) (A) (A) (A) (A) (A) (A) (A)
                 (A) (A) (A) (A) (A) (A) (A) (A) (A) (A) (A) (A)
                 (A) (A) (A) (A) (A) (A) (A) (A) (A) (A) (A) (A)
                 (A) (A) (A) (A) (A) (A) (A) (A) (A) (A) (A) (A)
                 (A) (A) (A) (A) (A) (A) (A) (A) (A) (A) (A) (A)
                 (A) (A) (A) (A) (A) (A) (A) (A) (A) (A) (A) (A)
                 (A) (A) (A) (A) (A) (A) (A) (A) (A) (A) (A) (A)
                 (A) (A) (A) (A) (A) (A) (A) (A) (A) (A) (A) (A)
                 (A) (A) (A) (A) (A) (A) (A) (A) (A) (A) (A) (A)
                 (A) (A) (A) (A) (A) (A) (A) (A) (A) (A) (A) (A)
                 (A) (A) (A) (A) (A) (A) (A) (A) (A) (A) (A) (A)
                 (A) (A) (A) (A) (A) (A) (A) (A) (A) (A) (A) (A)
                 (A) (A) (A) (A) (A) (A) (A) (A) (A) (A) (A) (A)
                 (A) (A) (A) (A) (A) (A) (A) (A) (A) (A) (A) (A)
                 (A) (A) (A) (A) (A) (A) (A) (A) (A) (A) (A) (A)
                 (A) (A) (A) (A) (A) (A) (A) (A) (A) (A) (A) (A)
                 (A) (A) (A) (A) (A) (A) (A) (A) (A) (A) (A) (A)
                 (A) (A) (A) (A) (A) (A) (A) (A) (A) (A) (A) (A)
                 (A) (A) (A) (A) (A) (A) (A) (A) (A) (A) (A) (A)
                 (A) (A) (A) (A) (A) (A) (A) (A) (A) (A) (A) (A)
                 (A) (A) (A) (A) (A) (A) (A) (A) (A) (A) (A) (A)
                 (A) (A) (A) (A) (A) (A) (A) (A) (A) (A) (A) (A)
                 (A) (A) (A) (A) (A) (A) (A) (A) (A) (A) (A) (A)
                 (A) (A) (A) (A) (A) (A) (A) (A) (A) (A) (A) (A)
                 (A) (A) (A) (A)
 The electronic state is 1-A.
 Alpha  occ. eigenvalues --  -88.88533 -88.88303 -88.87429 -88.87154 -10.22128
 Alpha  occ. eigenvalues --  -10.22052 -10.21603 -10.21543 -10.21068 -10.20996
 Alpha  occ. eigenvalues --  -10.20534 -10.20471 -10.20376 -10.20330 -10.19402
 Alpha  occ. eigenvalues --  -10.19333 -10.19328 -10.19250 -10.19062 -10.19011
 Alpha  occ. eigenvalues --  -10.18789 -10.18771 -10.18632 -10.18569 -10.18348
 Alpha  occ. eigenvalues --  -10.18271 -10.18100 -10.17782 -10.17748 -10.17742
 Alpha  occ. eigenvalues --  -10.17676 -10.17455  -7.97184  -7.96947  -7.96086
 Alpha  occ. eigenvalues --   -7.95812  -5.93511  -5.93278  -5.93152  -5.92917
 Alpha  occ. eigenvalues --   -5.92683  -5.92445  -5.92415  -5.92140  -5.92057
 Alpha  occ. eigenvalues --   -5.91777  -5.91585  -5.91308  -0.92626  -0.91541
 Alpha  occ. eigenvalues --   -0.88554  -0.87474  -0.84470  -0.83419  -0.82399
 Alpha  occ. eigenvalues --   -0.81340  -0.78084  -0.77678  -0.77041  -0.76611
 Alpha  occ. eigenvalues --   -0.74263  -0.73212  -0.72449  -0.71412  -0.70314
 Alpha  occ. eigenvalues --   -0.69264  -0.64924  -0.63893  -0.61835  -0.60804
 Alpha  occ. eigenvalues --   -0.59677  -0.58770  -0.58646  -0.57745  -0.57283
 Alpha  occ. eigenvalues --   -0.56247  -0.51731  -0.50738  -0.50518  -0.49498
 Alpha  occ. eigenvalues --   -0.49394  -0.48380  -0.47799  -0.46929  -0.45949
 Alpha  occ. eigenvalues --   -0.45791  -0.45059  -0.44809  -0.44287  -0.43839
 Alpha  occ. eigenvalues --   -0.43660  -0.43150  -0.42606  -0.42333  -0.41138
 Alpha  occ. eigenvalues --   -0.40783  -0.40120  -0.39862  -0.39439  -0.38415
 Alpha  occ. eigenvalues --   -0.37592  -0.36941  -0.36597  -0.36489  -0.35920
 Alpha  occ. eigenvalues --   -0.35502  -0.35047  -0.34932  -0.34808  -0.34057
 Alpha  occ. eigenvalues --   -0.33865  -0.33725  -0.32802  -0.31865  -0.29156
 Alpha  occ. eigenvalues --   -0.28489  -0.28105  -0.27493  -0.25302  -0.24223
 Alpha  occ. eigenvalues --   -0.23234  -0.22173  -0.21431  -0.20383
 Alpha virt. eigenvalues --   -0.06022  -0.04919  -0.02745  -0.02015  -0.01623
 Alpha virt. eigenvalues --   -0.00909  -0.00778   0.00000   0.00468   0.01207
 Alpha virt. eigenvalues --    0.01525   0.02638   0.03680   0.03824   0.04259
 Alpha virt. eigenvalues --    0.04747   0.04900   0.05519   0.06453   0.06989
 Alpha virt. eigenvalues --    0.07179   0.07547   0.07853   0.08854   0.09188
 Alpha virt. eigenvalues --    0.10392   0.10982   0.11912   0.12498   0.12632
 Alpha virt. eigenvalues --    0.12727   0.13059   0.13157   0.13402   0.13894
 Alpha virt. eigenvalues --    0.14143   0.14551   0.14950   0.15673   0.16009
 Alpha virt. eigenvalues --    0.16717   0.17238   0.18054   0.18801   0.19912
 Alpha virt. eigenvalues --    0.20905   0.21234   0.21720   0.22859   0.23003
 Alpha virt. eigenvalues --    0.23560   0.24239   0.24394   0.25160   0.26802
 Alpha virt. eigenvalues --    0.27295   0.27379   0.27797   0.28095   0.28225
 Alpha virt. eigenvalues --    0.28545   0.28985   0.29153   0.29370   0.29979
 Alpha virt. eigenvalues --    0.31815   0.32367   0.33670   0.33884   0.34878
 Alpha virt. eigenvalues --    0.35077   0.35300   0.36194   0.36641   0.36904
 Alpha virt. eigenvalues --    0.37945   0.38004   0.38212   0.38595   0.39012
 Alpha virt. eigenvalues --    0.39535   0.39914   0.40203   0.40611   0.40826
 Alpha virt. eigenvalues --    0.41088   0.41254   0.41591   0.41790   0.42102
 Alpha virt. eigenvalues --    0.42307   0.42820   0.43124   0.43297   0.43590
 Alpha virt. eigenvalues --    0.43746   0.44101   0.44308   0.44617   0.45025
 Alpha virt. eigenvalues --    0.45699   0.45977   0.46211   0.46307   0.46479
 Alpha virt. eigenvalues --    0.47243   0.48385   0.48666   0.48809   0.49304
 Alpha virt. eigenvalues --    0.49521   0.50606   0.50731   0.50946   0.51485
 Alpha virt. eigenvalues --    0.52328   0.52865   0.53715   0.53837   0.54169
 Alpha virt. eigenvalues --    0.55264   0.55464   0.56020   0.56692   0.57103
 Alpha virt. eigenvalues --    0.57906   0.58066   0.58141   0.58722   0.58966
 Alpha virt. eigenvalues --    0.59027   0.59466   0.59785   0.59850   0.60057
 Alpha virt. eigenvalues --    0.60807   0.60842   0.61267   0.61372   0.61817
 Alpha virt. eigenvalues --    0.62443   0.62602   0.63115   0.63514   0.64138
 Alpha virt. eigenvalues --    0.64552   0.65451   0.66290   0.67122   0.67519
 Alpha virt. eigenvalues --    0.68427   0.69358   0.69631   0.70091   0.70693
 Alpha virt. eigenvalues --    0.71093   0.71500   0.71768   0.72186   0.72383
 Alpha virt. eigenvalues --    0.72955   0.73285   0.73446   0.74284   0.74804
 Alpha virt. eigenvalues --    0.75163   0.75471   0.76003   0.76377   0.77250
 Alpha virt. eigenvalues --    0.77565   0.77724   0.78196   0.78681   0.79232
 Alpha virt. eigenvalues --    0.79827   0.79950   0.80751   0.80904   0.81383
 Alpha virt. eigenvalues --    0.82126   0.82235   0.83000   0.83743   0.84030
 Alpha virt. eigenvalues --    0.84453   0.84790   0.85913   0.86159   0.86967
 Alpha virt. eigenvalues --    0.87115   0.87346   0.87899   0.88690   0.89130
 Alpha virt. eigenvalues --    0.89749   0.90211   0.90744   0.91092   0.91771
 Alpha virt. eigenvalues --    0.92620   0.93474   0.93521   0.94303   0.94703
 Alpha virt. eigenvalues --    0.95785   0.96495   0.97279   0.97354   0.98327
 Alpha virt. eigenvalues --    0.98711   0.99122   0.99473   0.99658   1.00248
 Alpha virt. eigenvalues --    1.00632   1.00901   1.01804   1.02618   1.03217
 Alpha virt. eigenvalues --    1.04144   1.04511   1.05975   1.06870   1.07102
 Alpha virt. eigenvalues --    1.07587   1.08078   1.08480   1.09307   1.09540
 Alpha virt. eigenvalues --    1.09844   1.10150   1.10777   1.11006   1.11235
 Alpha virt. eigenvalues --    1.11645   1.11906   1.13574   1.15834   1.17347
 Alpha virt. eigenvalues --    1.18775   1.19905   1.20861   1.21527   1.21993
 Alpha virt. eigenvalues --    1.22890   1.23628   1.24769   1.25008   1.26346
 Alpha virt. eigenvalues --    1.28139   1.28593   1.29315   1.29542   1.30711
 Alpha virt. eigenvalues --    1.32175   1.34777   1.35996   1.38638   1.40309
 Alpha virt. eigenvalues --    1.41052   1.41494   1.41580   1.42943   1.43376
 Alpha virt. eigenvalues --    1.43838   1.44275   1.44819   1.45769   1.46629
 Alpha virt. eigenvalues --    1.47491   1.48365   1.48752   1.49131   1.49605
 Alpha virt. eigenvalues --    1.50992   1.52720   1.53387   1.53575   1.54168
 Alpha virt. eigenvalues --    1.54756   1.55721   1.56022   1.56676   1.57044
 Alpha virt. eigenvalues --    1.58381   1.58575   1.59247   1.59639   1.59836
 Alpha virt. eigenvalues --    1.60887   1.61007   1.61214   1.61379   1.61802
 Alpha virt. eigenvalues --    1.62440   1.62528   1.62965   1.63620   1.64149
 Alpha virt. eigenvalues --    1.65013   1.66385   1.67949   1.68549   1.69588
 Alpha virt. eigenvalues --    1.70351   1.70553   1.72084   1.72353   1.73161
 Alpha virt. eigenvalues --    1.73614   1.73653   1.74028   1.74518   1.75774
 Alpha virt. eigenvalues --    1.75851   1.76484   1.77120   1.80340   1.80634
 Alpha virt. eigenvalues --    1.81193   1.81555   1.82152   1.82554   1.82839
 Alpha virt. eigenvalues --    1.83091   1.83435   1.84258   1.84430   1.85406
 Alpha virt. eigenvalues --    1.86111   1.86485   1.87169   1.88283   1.88896
 Alpha virt. eigenvalues --    1.89397   1.89515   1.89996   1.90238   1.90400
 Alpha virt. eigenvalues --    1.90486   1.91162   1.91404   1.92097   1.92687
 Alpha virt. eigenvalues --    1.92863   1.93708   1.94365   1.94446   1.95104
 Alpha virt. eigenvalues --    1.95531   1.96027   1.96243   1.97340   1.97947
 Alpha virt. eigenvalues --    1.98245   1.99298   1.99929   2.00408   2.00715
 Alpha virt. eigenvalues --    2.01388   2.02147   2.02296   2.03144   2.03453
 Alpha virt. eigenvalues --    2.05027   2.05114   2.05939   2.07298   2.08062
 Alpha virt. eigenvalues --    2.08208   2.09605   2.10955   2.12270   2.13151
 Alpha virt. eigenvalues --    2.13668   2.14745   2.16894   2.23030   2.23516
 Alpha virt. eigenvalues --    2.26044   2.26327   2.26519   2.26912   2.27209
 Alpha virt. eigenvalues --    2.28079   2.29123   2.30502   2.32555   2.32902
 Alpha virt. eigenvalues --    2.33175   2.33424   2.33639   2.33733   2.33887
 Alpha virt. eigenvalues --    2.34560   2.34987   2.36105   2.37274   2.37555
 Alpha virt. eigenvalues --    2.38618   2.40116   2.41731   2.42216   2.47908
 Alpha virt. eigenvalues --    2.49222   2.52235   2.52753   2.53955   2.55952
 Alpha virt. eigenvalues --    2.56312   2.56633   2.57307   2.58034   2.58417
 Alpha virt. eigenvalues --    2.58611   2.60146   2.60432   2.60831   2.61318
 Alpha virt. eigenvalues --    2.61924   2.62422   2.63122   2.63563   2.64019
 Alpha virt. eigenvalues --    2.64831   2.65184   2.65730   2.65954   2.66051
 Alpha virt. eigenvalues --    2.66247   2.67255   2.67641   2.68893   2.68965
 Alpha virt. eigenvalues --    2.69550   2.69642   2.69956   2.71793   2.73065
 Alpha virt. eigenvalues --    2.73419   2.73633   2.74279   2.74940   2.76095
 Alpha virt. eigenvalues --    2.77597   2.79143   2.79864   2.80042   2.81085
 Alpha virt. eigenvalues --    2.81475   2.81846   2.82144   2.83038   2.83601
 Alpha virt. eigenvalues --    2.84596   2.84778   2.85888   2.86023   2.86829
 Alpha virt. eigenvalues --    2.88121   2.89939   2.91789   2.92655   2.94245
 Alpha virt. eigenvalues --    2.94661   2.97659   2.99511   3.04166   3.05077
 Alpha virt. eigenvalues --    3.05782   3.06834   3.08250   3.08926   3.11969
 Alpha virt. eigenvalues --    3.12213   3.16033   3.16768   3.17950   3.18533
 Alpha virt. eigenvalues --    3.23924   3.24249   3.25112   3.25766   3.30438
 Alpha virt. eigenvalues --    3.30545   3.31029   3.31573   3.32679   3.33268
 Alpha virt. eigenvalues --    3.35004   3.36187   3.38855   3.40095   3.43704
 Alpha virt. eigenvalues --    3.44376   3.45884   3.46788   3.46968   3.47812
 Alpha virt. eigenvalues --    3.51810   3.51868   3.55437   3.56338   3.56771
 Alpha virt. eigenvalues --    3.57047   3.63212   3.64541   3.77664   3.77860
 Alpha virt. eigenvalues --    3.83545   3.84222   3.98722   3.99775   4.00252
 Alpha virt. eigenvalues --    4.01223   4.01570   4.02760   4.04173   4.05222
 Alpha virt. eigenvalues --    4.11438   4.11693   4.13093   4.14767   4.20780
 Alpha virt. eigenvalues --    4.22082   4.54766   4.56296   4.79438   4.79556
 Alpha virt. eigenvalues --    4.80581   4.81102   7.81812   7.83429   7.87826
 Alpha virt. eigenvalues --    7.89621  17.20642  17.21199  17.22911  17.24070
 Alpha virt. eigenvalues --   17.44454  17.46155  17.51552  17.52655  17.52977
 Alpha virt. eigenvalues --   17.54144  17.54677  17.57994  23.36985  23.38152
 Alpha virt. eigenvalues --   23.55225  23.55642  23.69713  23.70678  23.85590
 Alpha virt. eigenvalues --   23.86251  23.86871  23.87117  23.90848  23.90996
 Alpha virt. eigenvalues --   23.92510  23.92930  23.98030  23.99123  24.00904
 Alpha virt. eigenvalues --   24.01924  24.03532  24.04541  24.06980  24.07102
 Alpha virt. eigenvalues --   24.08037  24.08290  24.14391  24.14487  24.15502
 Alpha virt. eigenvalues --   24.15827 188.92973 188.94936 189.00342 189.02643
          Condensed to atoms (all electrons):
               1          2          3          4          5          6
     1  S   15.388331   0.009196  -0.063288   0.006174  -0.000356   0.009784
     2  S    0.009196  15.383758  -0.000207  -0.000029   0.000310   0.002611
     3  C   -0.063288  -0.000207   4.870860   0.506866  -0.038363  -0.056558
     4  C    0.006174  -0.000029   0.506866   4.895215   0.488878  -0.048936
     5  C   -0.000356   0.000310  -0.038363   0.488878   4.884327   0.508306
     6  C    0.009784   0.002611  -0.056558  -0.048936   0.508306   4.887262
     7  C    0.001174   0.010009  -0.000001  -0.000000  -0.000000  -0.000002
     8  C    0.000347  -0.000256   0.000000  -0.000000   0.000000  -0.000000
     9  C   -0.000081   0.006187  -0.000000   0.000000  -0.000000   0.000000
    10  C   -0.000097  -0.063006   0.000000  -0.000000   0.000000  -0.000000
    11  C    0.007880   0.305450   0.000033  -0.000002   0.000002  -0.000293
    12  C   -0.071908  -0.087474  -0.000515   0.000025  -0.000016  -0.000007
    13  C    0.296245  -0.093368  -0.000585  -0.000015  -0.000611   0.011275
    14  C   -0.096321   0.315555   0.018040  -0.001251   0.013555  -0.090957
    15  C   -0.093385  -0.070754   0.009661  -0.052951  -0.027622   0.478972
    16  C    0.286025   0.009154   0.444038  -0.045643  -0.055934  -0.044265
    17  H   -0.003497   0.000018   0.415218  -0.038980   0.007238  -0.000715
    18  H    0.000123  -0.000003   0.007114  -0.042596   0.411361  -0.038586
    19  H   -0.000687   0.003309  -0.000957   0.007630  -0.040235   0.419200
    20  H    0.004817  -0.000653  -0.000004  -0.000000  -0.000000  -0.000001
    21  H    0.000004   0.000110  -0.000000   0.000000  -0.000000   0.000000
    22  H   -0.000003  -0.000373  -0.000000   0.000000   0.000000   0.000000
    23  H    0.000025  -0.003361   0.000000  -0.000000   0.000000  -0.000000
    24  H   -0.000368  -0.000003  -0.041927   0.414344  -0.043633   0.007769
    25  S   -0.009244  -0.000048   0.000091   0.000016  -0.000009  -0.000015
    26  S   -0.004439   0.000006  -0.000012  -0.000001   0.000000  -0.000001
    27  C   -0.001660  -0.000000   0.000401  -0.000072  -0.000002  -0.000001
    28  C   -0.000407  -0.000000  -0.000811  -0.000087  -0.000000  -0.000000
    29  C   -0.000252   0.000000  -0.000669   0.000001  -0.000000   0.000000
    30  C    0.000055   0.000000   0.000144   0.000014  -0.000000   0.000000
    31  C   -0.000014   0.000007   0.000000   0.000000   0.000000  -0.000000
    32  C    0.000021  -0.000000  -0.000000  -0.000000   0.000000  -0.000000
    33  C    0.000032  -0.000000  -0.000000  -0.000000  -0.000000   0.000000
    34  C   -0.000032   0.000000  -0.000000   0.000000  -0.000000   0.000000
    35  C   -0.002293   0.000006  -0.000000   0.000000   0.000000   0.000000
    36  C   -0.000451   0.000005   0.000000   0.000000  -0.000000   0.000000
    37  C   -0.003713  -0.000008  -0.000014  -0.000000   0.000000   0.000000
    38  C   -0.011610  -0.000001  -0.000053  -0.000001   0.000000   0.000000
    39  C    0.002897   0.000000   0.000344   0.000012  -0.000000   0.000001
    40  C   -0.007847  -0.000000   0.000433   0.000006   0.000000   0.000000
    41  H   -0.000036  -0.000000   0.000103   0.000020  -0.000001  -0.000000
    42  H    0.000001   0.000000   0.000008  -0.000000   0.000000   0.000000
    43  H    0.000141  -0.000000   0.000009   0.000000   0.000000   0.000000
    44  H    0.000022   0.000003   0.000000  -0.000000  -0.000000   0.000000
    45  H    0.000000   0.000000  -0.000000  -0.000000   0.000000  -0.000000
    46  H    0.000001   0.000000   0.000000   0.000000  -0.000000   0.000000
    47  H    0.000003  -0.000000  -0.000000  -0.000000   0.000000  -0.000000
    48  H    0.000014   0.000000   0.000047   0.000009   0.000000  -0.000000
               7          8          9         10         11         12
     1  S    0.001174   0.000347  -0.000081  -0.000097   0.007880  -0.071908
     2  S    0.010009  -0.000256   0.006187  -0.063006   0.305450  -0.087474
     3  C   -0.000001   0.000000  -0.000000   0.000000   0.000033  -0.000515
     4  C   -0.000000  -0.000000   0.000000  -0.000000  -0.000002   0.000025
     5  C   -0.000000   0.000000  -0.000000   0.000000   0.000002  -0.000016
     6  C   -0.000002  -0.000000   0.000000  -0.000000  -0.000293  -0.000007
     7  C    4.898622   0.491599  -0.039666  -0.063191  -0.035672   0.470169
     8  C    0.491599   4.915307   0.476322  -0.031289  -0.062963  -0.008193
     9  C   -0.039666   0.476322   4.898383   0.501810  -0.041785  -0.059741
    10  C   -0.063191  -0.031289   0.501810   4.880022   0.433292   0.016747
    11  C   -0.035672  -0.062963  -0.041785   0.433292   5.402531   0.399895
    12  C    0.470169  -0.008193  -0.059741   0.016747   0.399895   4.982209
    13  C   -0.091794   0.015914  -0.001693   0.018834  -0.104029   0.393950
    14  C    0.012192  -0.000690   0.000007  -0.000581  -0.087757  -0.007905
    15  C    0.000058  -0.000018   0.000027  -0.000514   0.003605   0.021223
    16  C   -0.000254   0.000004  -0.000002   0.000034  -0.000096   0.003891
    17  H   -0.000000   0.000000  -0.000000   0.000000   0.000001  -0.000009
    18  H    0.000000  -0.000000  -0.000000   0.000000  -0.000000  -0.000000
    19  H    0.000000  -0.000000   0.000000  -0.000003  -0.000110   0.000020
    20  H    0.411027  -0.048141   0.009312  -0.001839   0.010743  -0.053618
    21  H   -0.039086   0.409479  -0.046279   0.007731  -0.000166   0.008902
    22  H    0.008045  -0.043963   0.414630  -0.042573   0.009161  -0.000494
    23  H   -0.000679   0.007581  -0.037842   0.419700  -0.047949   0.007350
    24  H    0.000000   0.000000   0.000000  -0.000000  -0.000000  -0.000000
    25  S   -0.000055  -0.000007  -0.000001  -0.000000  -0.000030   0.000212
    26  S   -0.005687   0.000462   0.000034  -0.000009  -0.000022  -0.000822
    27  C   -0.000000  -0.000000   0.000000  -0.000000  -0.000000   0.000001
    28  C    0.000000   0.000000  -0.000000   0.000000   0.000000  -0.000000
    29  C   -0.000000  -0.000000   0.000000  -0.000000   0.000000   0.000000
    30  C   -0.000000  -0.000000  -0.000000   0.000000   0.000000   0.000000
    31  C    0.002048   0.000293  -0.000016  -0.000009   0.000002   0.000069
    32  C    0.000009   0.000113  -0.000101   0.000004  -0.000004  -0.000076
    33  C    0.001626  -0.004458  -0.000418   0.000011  -0.000017   0.000239
    34  C   -0.002038  -0.003314  -0.000080   0.000004  -0.000003   0.000188
    35  C   -0.010425   0.000615   0.000112  -0.000015   0.000028  -0.000278
    36  C   -0.003070  -0.000019   0.000046  -0.000004   0.000012   0.000022
    37  C   -0.000199   0.000036  -0.000001   0.000001   0.000001  -0.000151
    38  C    0.001154   0.000029  -0.000001   0.000000  -0.000005  -0.000132
    39  C    0.000031  -0.000000  -0.000000   0.000000  -0.000000  -0.000023
    40  C   -0.000009  -0.000000   0.000000  -0.000000  -0.000000   0.000009
    41  H   -0.000000  -0.000000   0.000000  -0.000000  -0.000000   0.000000
    42  H   -0.000000   0.000000   0.000000  -0.000000   0.000000   0.000000
    43  H    0.000000  -0.000000  -0.000000   0.000000  -0.000000  -0.000000
    44  H    0.000125   0.000028  -0.000005  -0.000001  -0.000000   0.000026
    45  H    0.000015   0.000108   0.000032  -0.000000  -0.000001  -0.000008
    46  H    0.000045   0.000061   0.000012  -0.000001  -0.000000   0.000002
    47  H   -0.000100   0.000117   0.000002   0.000000   0.000000  -0.000006
    48  H   -0.000000  -0.000000   0.000000  -0.000000  -0.000000   0.000000
              13         14         15         16         17         18
     1  S    0.296245  -0.096321  -0.093385   0.286025  -0.003497   0.000123
     2  S   -0.093368   0.315555  -0.070754   0.009154   0.000018  -0.000003
     3  C   -0.000585   0.018040   0.009661   0.444038   0.415218   0.007114
     4  C   -0.000015  -0.001251  -0.052951  -0.045643  -0.038980  -0.042596
     5  C   -0.000611   0.013555  -0.027622  -0.055934   0.007238   0.411361
     6  C    0.011275  -0.090957   0.478972  -0.044265  -0.000715  -0.038586
     7  C   -0.091794   0.012192   0.000058  -0.000254  -0.000000   0.000000
     8  C    0.015914  -0.000690  -0.000018   0.000004   0.000000  -0.000000
     9  C   -0.001693   0.000007   0.000027  -0.000002  -0.000000  -0.000000
    10  C    0.018834  -0.000581  -0.000514   0.000034   0.000000   0.000000
    11  C   -0.104029  -0.087757   0.003605  -0.000096   0.000001  -0.000000
    12  C    0.393950  -0.007905   0.021223   0.003891  -0.000009  -0.000000
    13  C    5.491275   0.362114  -0.013132  -0.077183  -0.000167   0.000015
    14  C    0.362114   5.472574   0.392942  -0.098218  -0.000262  -0.000468
    15  C   -0.013132   0.392942   4.956876   0.413218   0.007374   0.007642
    16  C   -0.077183  -0.098218   0.413218   5.423292  -0.043139   0.000240
    17  H   -0.000167  -0.000262   0.007374  -0.043139   0.551893  -0.000307
    18  H    0.000015  -0.000468   0.007642   0.000240  -0.000307   0.576198
    19  H    0.000098  -0.012281  -0.045111   0.009064   0.000060  -0.007755
    20  H   -0.017133   0.000287   0.000026  -0.000243   0.000001   0.000000
    21  H   -0.000412   0.000018  -0.000000  -0.000000  -0.000000   0.000000
    22  H   -0.000005   0.000010  -0.000000  -0.000000   0.000000   0.000000
    23  H   -0.000329  -0.000118  -0.000008   0.000001   0.000000  -0.000000
    24  H    0.000010  -0.000004  -0.000354   0.009040  -0.007584  -0.007653
    25  S   -0.000087   0.000233   0.000006  -0.000146   0.000003  -0.000000
    26  S    0.000159   0.000066  -0.000035   0.000073   0.000004   0.000000
    27  C   -0.000001   0.000001   0.000014   0.000365   0.000355   0.000000
    28  C   -0.000003   0.000000   0.000005   0.000122   0.002974   0.000000
    29  C    0.000004  -0.000000   0.000002   0.000074   0.002277   0.000000
    30  C    0.000028  -0.000002  -0.000001  -0.000148   0.000061  -0.000000
    31  C   -0.000024  -0.000002  -0.000000  -0.000000  -0.000000   0.000000
    32  C   -0.000006  -0.000000  -0.000000   0.000000   0.000000   0.000000
    33  C    0.000001  -0.000000   0.000000  -0.000000   0.000000  -0.000000
    34  C   -0.000005  -0.000000   0.000000   0.000000  -0.000000  -0.000000
    35  C    0.000033  -0.000001   0.000000   0.000001  -0.000000  -0.000000
    36  C   -0.000039   0.000000   0.000003  -0.000025  -0.000001  -0.000000
    37  C    0.000393  -0.000020   0.000002   0.000082   0.000014   0.000000
    38  C    0.000284  -0.000000  -0.000005   0.000486   0.000020   0.000000
    39  C    0.000132  -0.000011   0.000003  -0.000379  -0.000581  -0.000000
    40  C    0.000034   0.000000  -0.000019  -0.000081  -0.001120   0.000000
    41  H    0.000001   0.000000  -0.000001   0.000006   0.000031  -0.000000
    42  H    0.000000  -0.000000   0.000000  -0.000000   0.000058  -0.000000
    43  H   -0.000005   0.000000  -0.000000  -0.000009   0.000014  -0.000000
    44  H   -0.000012  -0.000001   0.000000   0.000000  -0.000000  -0.000000
    45  H   -0.000000   0.000000  -0.000000   0.000000   0.000000   0.000000
    46  H   -0.000000  -0.000000   0.000000  -0.000000  -0.000000   0.000000
    47  H   -0.000001   0.000000  -0.000000   0.000000  -0.000000   0.000000
    48  H    0.000000  -0.000000  -0.000000  -0.000003   0.000078  -0.000000
              19         20         21         22         23         24
     1  S   -0.000687   0.004817   0.000004  -0.000003   0.000025  -0.000368
     2  S    0.003309  -0.000653   0.000110  -0.000373  -0.003361  -0.000003
     3  C   -0.000957  -0.000004  -0.000000  -0.000000   0.000000  -0.041927
     4  C    0.007630  -0.000000   0.000000   0.000000  -0.000000   0.414344
     5  C   -0.040235  -0.000000  -0.000000   0.000000   0.000000  -0.043633
     6  C    0.419200  -0.000001   0.000000   0.000000  -0.000000   0.007769
     7  C    0.000000   0.411027  -0.039086   0.008045  -0.000679   0.000000
     8  C   -0.000000  -0.048141   0.409479  -0.043963   0.007581   0.000000
     9  C    0.000000   0.009312  -0.046279   0.414630  -0.037842   0.000000
    10  C   -0.000003  -0.001839   0.007731  -0.042573   0.419700  -0.000000
    11  C   -0.000110   0.010743  -0.000166   0.009161  -0.047949  -0.000000
    12  C    0.000020  -0.053618   0.008902  -0.000494   0.007350  -0.000000
    13  C    0.000098  -0.017133  -0.000412  -0.000005  -0.000329   0.000010
    14  C   -0.012281   0.000287   0.000018   0.000010  -0.000118  -0.000004
    15  C   -0.045111   0.000026  -0.000000  -0.000000  -0.000008  -0.000354
    16  C    0.009064  -0.000243  -0.000000  -0.000000   0.000001   0.009040
    17  H    0.000060   0.000001  -0.000000   0.000000   0.000000  -0.007584
    18  H   -0.007755   0.000000   0.000000   0.000000  -0.000000  -0.007653
    19  H    0.574638   0.000000   0.000000   0.000000   0.000000  -0.000315
    20  H    0.000000   0.590709  -0.009916  -0.000282   0.000062   0.000000
    21  H    0.000000  -0.009916   0.579578  -0.007979  -0.000318   0.000000
    22  H    0.000000  -0.000282  -0.007979   0.577867  -0.007949  -0.000000
    23  H    0.000000   0.000062  -0.000318  -0.007949   0.569512   0.000000
    24  H   -0.000315   0.000000   0.000000  -0.000000   0.000000   0.576650
    25  S    0.000001  -0.000046  -0.000001   0.000000   0.000000  -0.000000
    26  S   -0.000000   0.003424  -0.000303   0.000003  -0.000000  -0.000000
    27  C   -0.000000   0.000002  -0.000000   0.000000  -0.000000   0.000015
    28  C   -0.000000  -0.000000   0.000000  -0.000000   0.000000   0.000019
    29  C   -0.000000   0.000000  -0.000000  -0.000000  -0.000000   0.000001
    30  C    0.000000  -0.000006  -0.000000  -0.000000   0.000000  -0.000000
    31  C    0.000000  -0.001717  -0.000345   0.000004  -0.000000  -0.000000
    32  C   -0.000000  -0.000501  -0.000055   0.000012   0.000000  -0.000000
    33  C    0.000000  -0.002352   0.005926  -0.000032   0.000001   0.000000
    34  C   -0.000000  -0.000958   0.004915  -0.000012   0.000000   0.000000
    35  C   -0.000000   0.001633  -0.000735   0.000002  -0.000000  -0.000000
    36  C    0.000000  -0.000339  -0.000320   0.000002  -0.000000   0.000000
    37  C   -0.000000   0.000007   0.000007  -0.000000   0.000000  -0.000000
    38  C   -0.000000  -0.004126   0.000027  -0.000000   0.000000   0.000000
    39  C   -0.000000  -0.000156   0.000000  -0.000000   0.000000   0.000000
    40  C   -0.000000   0.000007  -0.000000   0.000000  -0.000000   0.000001
    41  H    0.000000   0.000000  -0.000000   0.000000  -0.000000   0.000001
    42  H    0.000000  -0.000000  -0.000000   0.000000  -0.000000  -0.000000
    43  H    0.000000   0.000002  -0.000000   0.000000   0.000000  -0.000000
    44  H    0.000000   0.000002   0.000003  -0.000000   0.000000   0.000000
    45  H   -0.000000   0.000021  -0.000030   0.000002  -0.000000  -0.000000
    46  H    0.000000   0.000023   0.000214   0.000004  -0.000000  -0.000000
    47  H   -0.000000   0.000106   0.000295  -0.000001  -0.000000   0.000000
    48  H    0.000000   0.000000   0.000000   0.000000   0.000000   0.000003
              25         26         27         28         29         30
     1  S   -0.009244  -0.004439  -0.001660  -0.000407  -0.000252   0.000055
     2  S   -0.000048   0.000006  -0.000000  -0.000000   0.000000   0.000000
     3  C    0.000091  -0.000012   0.000401  -0.000811  -0.000669   0.000144
     4  C    0.000016  -0.000001  -0.000072  -0.000087   0.000001   0.000014
     5  C   -0.000009   0.000000  -0.000002  -0.000000  -0.000000  -0.000000
     6  C   -0.000015  -0.000001  -0.000001  -0.000000   0.000000   0.000000
     7  C   -0.000055  -0.005687  -0.000000   0.000000  -0.000000  -0.000000
     8  C   -0.000007   0.000462  -0.000000   0.000000  -0.000000  -0.000000
     9  C   -0.000001   0.000034   0.000000  -0.000000   0.000000  -0.000000
    10  C   -0.000000  -0.000009  -0.000000   0.000000  -0.000000   0.000000
    11  C   -0.000030  -0.000022  -0.000000   0.000000   0.000000   0.000000
    12  C    0.000212  -0.000822   0.000001  -0.000000   0.000000   0.000000
    13  C   -0.000087   0.000159  -0.000001  -0.000003   0.000004   0.000028
    14  C    0.000233   0.000066   0.000001   0.000000  -0.000000  -0.000002
    15  C    0.000006  -0.000035   0.000014   0.000005   0.000002  -0.000001
    16  C   -0.000146   0.000073   0.000365   0.000122   0.000074  -0.000148
    17  H    0.000003   0.000004   0.000355   0.002974   0.002277   0.000061
    18  H   -0.000000   0.000000   0.000000   0.000000   0.000000  -0.000000
    19  H    0.000001  -0.000000  -0.000000  -0.000000  -0.000000   0.000000
    20  H   -0.000046   0.003424   0.000002  -0.000000   0.000000  -0.000006
    21  H   -0.000001  -0.000303  -0.000000   0.000000  -0.000000  -0.000000
    22  H    0.000000   0.000003   0.000000  -0.000000  -0.000000  -0.000000
    23  H    0.000000  -0.000000  -0.000000   0.000000  -0.000000   0.000000
    24  H   -0.000000  -0.000000   0.000015   0.000019   0.000001  -0.000000
    25  S   15.366972   0.011963  -0.063486   0.006370  -0.000428   0.010658
    26  S    0.011963  15.393574  -0.000273   0.000004   0.000256   0.002886
    27  C   -0.063486  -0.000273   4.868937   0.506163  -0.039497  -0.055402
    28  C    0.006370   0.000004   0.506163   4.894445   0.485824  -0.049877
    29  C   -0.000428   0.000256  -0.039497   0.485824   4.894413   0.504490
    30  C    0.010658   0.002886  -0.055402  -0.049877   0.504490   4.887845
    31  C    0.002678   0.009494  -0.000001   0.000000  -0.000000  -0.000001
    32  C    0.000309   0.000126   0.000000  -0.000000   0.000000  -0.000000
    33  C   -0.000021   0.005652  -0.000000   0.000000  -0.000000   0.000000
    34  C   -0.000236  -0.059714   0.000000  -0.000000   0.000000  -0.000001
    35  C    0.009349   0.325909   0.000033  -0.000002   0.000002  -0.000288
    36  C   -0.071046  -0.099214  -0.000494   0.000026  -0.000016   0.000094
    37  C    0.326837  -0.087193  -0.000407  -0.000053  -0.000617   0.011506
    38  C   -0.093484   0.318341   0.017485  -0.001182   0.013369  -0.092846
    39  C   -0.087072  -0.073411   0.008837  -0.052761  -0.029818   0.482778
    40  C    0.318697   0.009641   0.437779  -0.045529  -0.056536  -0.039536
    41  H   -0.003360   0.000021   0.420305  -0.037367   0.007390  -0.000638
    42  H    0.000099  -0.000006   0.007011  -0.041930   0.412406  -0.038009
    43  H   -0.000576   0.003263  -0.000979   0.007598  -0.040123   0.421264
    44  H    0.003002  -0.000633  -0.000003   0.000000  -0.000000   0.000000
    45  H   -0.000001   0.000108   0.000000  -0.000000  -0.000000   0.000000
    46  H   -0.000003  -0.000414  -0.000000   0.000000   0.000000   0.000000
    47  H    0.000022  -0.003012   0.000000  -0.000000   0.000000  -0.000000
    48  H   -0.000371  -0.000003  -0.041052   0.415000  -0.043174   0.007604
              31         32         33         34         35         36
     1  S   -0.000014   0.000021   0.000032  -0.000032  -0.002293  -0.000451
     2  S    0.000007  -0.000000  -0.000000   0.000000   0.000006   0.000005
     3  C    0.000000  -0.000000  -0.000000  -0.000000  -0.000000   0.000000
     4  C    0.000000  -0.000000  -0.000000   0.000000   0.000000   0.000000
     5  C    0.000000   0.000000  -0.000000  -0.000000   0.000000  -0.000000
     6  C   -0.000000  -0.000000   0.000000   0.000000   0.000000   0.000000
     7  C    0.002048   0.000009   0.001626  -0.002038  -0.010425  -0.003070
     8  C    0.000293   0.000113  -0.004458  -0.003314   0.000615  -0.000019
     9  C   -0.000016  -0.000101  -0.000418  -0.000080   0.000112   0.000046
    10  C   -0.000009   0.000004   0.000011   0.000004  -0.000015  -0.000004
    11  C    0.000002  -0.000004  -0.000017  -0.000003   0.000028   0.000012
    12  C    0.000069  -0.000076   0.000239   0.000188  -0.000278   0.000022
    13  C   -0.000024  -0.000006   0.000001  -0.000005   0.000033  -0.000039
    14  C   -0.000002  -0.000000  -0.000000  -0.000000  -0.000001   0.000000
    15  C   -0.000000  -0.000000   0.000000   0.000000   0.000000   0.000003
    16  C   -0.000000   0.000000  -0.000000   0.000000   0.000001  -0.000025
    17  H   -0.000000   0.000000   0.000000  -0.000000  -0.000000  -0.000001
    18  H    0.000000   0.000000  -0.000000  -0.000000  -0.000000  -0.000000
    19  H    0.000000  -0.000000   0.000000  -0.000000  -0.000000   0.000000
    20  H   -0.001717  -0.000501  -0.002352  -0.000958   0.001633  -0.000339
    21  H   -0.000345  -0.000055   0.005926   0.004915  -0.000735  -0.000320
    22  H    0.000004   0.000012  -0.000032  -0.000012   0.000002   0.000002
    23  H   -0.000000   0.000000   0.000001   0.000000  -0.000000  -0.000000
    24  H   -0.000000  -0.000000   0.000000   0.000000  -0.000000   0.000000
    25  S    0.002678   0.000309  -0.000021  -0.000236   0.009349  -0.071046
    26  S    0.009494   0.000126   0.005652  -0.059714   0.325909  -0.099214
    27  C   -0.000001   0.000000  -0.000000   0.000000   0.000033  -0.000494
    28  C    0.000000  -0.000000   0.000000  -0.000000  -0.000002   0.000026
    29  C   -0.000000   0.000000  -0.000000   0.000000   0.000002  -0.000016
    30  C   -0.000001  -0.000000   0.000000  -0.000001  -0.000288   0.000094
    31  C    4.863157   0.511417  -0.050935  -0.050363  -0.041566   0.487000
    32  C    0.511417   4.869252   0.489515  -0.040237  -0.056501  -0.029163
    33  C   -0.050935   0.489515   4.887701   0.510102  -0.051441  -0.049790
    34  C   -0.050363  -0.040237   0.510102   4.872909   0.438060  -0.000201
    35  C   -0.041566  -0.056501  -0.051441   0.438060   5.483070   0.386157
    36  C    0.487000  -0.029163  -0.049790  -0.000201   0.386157   4.949176
    37  C   -0.088851   0.013455  -0.001107   0.015999  -0.093936   0.396354
    38  C    0.011276  -0.000678  -0.000037   0.000034  -0.095242  -0.016796
    39  C    0.000088  -0.000020   0.000028  -0.000525   0.002242   0.021211
    40  C   -0.000311   0.000002  -0.000002   0.000033   0.000002   0.003242
    41  H   -0.000000   0.000000  -0.000000   0.000000   0.000001  -0.000007
    42  H    0.000000  -0.000000  -0.000000   0.000000  -0.000000   0.000000
    43  H    0.000000  -0.000000   0.000000  -0.000003  -0.000078   0.000009
    44  H    0.420541  -0.039329   0.007677  -0.000913   0.008971  -0.045503
    45  H   -0.037144   0.411084  -0.041749   0.006943   0.000253   0.007469
    46  H    0.007489  -0.041762   0.414623  -0.042656   0.008900  -0.000277
    47  H   -0.000695   0.007498  -0.038133   0.422388  -0.048506   0.007342
    48  H    0.000000   0.000000   0.000000  -0.000000  -0.000000  -0.000000
              37         38         39         40         41         42
     1  S   -0.003713  -0.011610   0.002897  -0.007847  -0.000036   0.000001
     2  S   -0.000008  -0.000001   0.000000  -0.000000  -0.000000   0.000000
     3  C   -0.000014  -0.000053   0.000344   0.000433   0.000103   0.000008
     4  C   -0.000000  -0.000001   0.000012   0.000006   0.000020  -0.000000
     5  C    0.000000   0.000000  -0.000000   0.000000  -0.000001   0.000000
     6  C    0.000000   0.000000   0.000001   0.000000  -0.000000   0.000000
     7  C   -0.000199   0.001154   0.000031  -0.000009  -0.000000  -0.000000
     8  C    0.000036   0.000029  -0.000000  -0.000000  -0.000000   0.000000
     9  C   -0.000001  -0.000001  -0.000000   0.000000   0.000000   0.000000
    10  C    0.000001   0.000000   0.000000  -0.000000  -0.000000  -0.000000
    11  C    0.000001  -0.000005  -0.000000  -0.000000  -0.000000   0.000000
    12  C   -0.000151  -0.000132  -0.000023   0.000009   0.000000   0.000000
    13  C    0.000393   0.000284   0.000132   0.000034   0.000001   0.000000
    14  C   -0.000020  -0.000000  -0.000011   0.000000   0.000000  -0.000000
    15  C    0.000002  -0.000005   0.000003  -0.000019  -0.000001   0.000000
    16  C    0.000082   0.000486  -0.000379  -0.000081   0.000006  -0.000000
    17  H    0.000014   0.000020  -0.000581  -0.001120   0.000031   0.000058
    18  H    0.000000   0.000000  -0.000000   0.000000  -0.000000  -0.000000
    19  H   -0.000000  -0.000000  -0.000000  -0.000000   0.000000   0.000000
    20  H    0.000007  -0.004126  -0.000156   0.000007   0.000000  -0.000000
    21  H    0.000007   0.000027   0.000000  -0.000000  -0.000000  -0.000000
    22  H   -0.000000  -0.000000  -0.000000   0.000000   0.000000   0.000000
    23  H    0.000000   0.000000   0.000000  -0.000000  -0.000000  -0.000000
    24  H   -0.000000   0.000000   0.000000   0.000001   0.000001  -0.000000
    25  S    0.326837  -0.093484  -0.087072   0.318697  -0.003360   0.000099
    26  S   -0.087193   0.318341  -0.073411   0.009641   0.000021  -0.000006
    27  C   -0.000407   0.017485   0.008837   0.437779   0.420305   0.007011
    28  C   -0.000053  -0.001182  -0.052761  -0.045529  -0.037367  -0.041930
    29  C   -0.000617   0.013369  -0.029818  -0.056536   0.007390   0.412406
    30  C    0.011506  -0.092846   0.482778  -0.039536  -0.000638  -0.038009
    31  C   -0.088851   0.011276   0.000088  -0.000311  -0.000000   0.000000
    32  C    0.013455  -0.000678  -0.000020   0.000002   0.000000  -0.000000
    33  C   -0.001107  -0.000037   0.000028  -0.000002  -0.000000  -0.000000
    34  C    0.015999   0.000034  -0.000525   0.000033   0.000000   0.000000
    35  C   -0.093936  -0.095242   0.002242   0.000002   0.000001  -0.000000
    36  C    0.396354  -0.016796   0.021211   0.003242  -0.000007   0.000000
    37  C    5.435458   0.362171  -0.012266  -0.091131  -0.000080   0.000017
    38  C    0.362171   5.471890   0.377579  -0.096340  -0.000340  -0.000462
    39  C   -0.012266   0.377579   4.983365   0.407319   0.007308   0.007564
    40  C   -0.091131  -0.096340   0.407319   5.380369  -0.046470   0.000213
    41  H   -0.000080  -0.000340   0.007308  -0.046470   0.561533  -0.000312
    42  H    0.000017  -0.000462   0.007564   0.000213  -0.000312   0.568803
    43  H    0.000041  -0.011871  -0.044442   0.009161   0.000061  -0.007613
    44  H   -0.011955   0.000123   0.000013  -0.000092   0.000000   0.000000
    45  H   -0.000466   0.000016  -0.000000  -0.000000  -0.000000   0.000000
    46  H   -0.000002   0.000010  -0.000000  -0.000000   0.000000   0.000000
    47  H   -0.000300  -0.000106  -0.000010   0.000001   0.000000  -0.000000
    48  H    0.000010  -0.000002  -0.000370   0.008838  -0.007735  -0.007412
              43         44         45         46         47         48
     1  S    0.000141   0.000022   0.000000   0.000001   0.000003   0.000014
     2  S   -0.000000   0.000003   0.000000   0.000000  -0.000000   0.000000
     3  C    0.000009   0.000000  -0.000000   0.000000  -0.000000   0.000047
     4  C    0.000000  -0.000000  -0.000000   0.000000  -0.000000   0.000009
     5  C    0.000000  -0.000000   0.000000  -0.000000   0.000000   0.000000
     6  C    0.000000   0.000000  -0.000000   0.000000  -0.000000  -0.000000
     7  C    0.000000   0.000125   0.000015   0.000045  -0.000100  -0.000000
     8  C   -0.000000   0.000028   0.000108   0.000061   0.000117  -0.000000
     9  C   -0.000000  -0.000005   0.000032   0.000012   0.000002   0.000000
    10  C    0.000000  -0.000001  -0.000000  -0.000001   0.000000  -0.000000
    11  C   -0.000000  -0.000000  -0.000001  -0.000000   0.000000  -0.000000
    12  C   -0.000000   0.000026  -0.000008   0.000002  -0.000006   0.000000
    13  C   -0.000005  -0.000012  -0.000000  -0.000000  -0.000001   0.000000
    14  C    0.000000  -0.000001   0.000000  -0.000000   0.000000  -0.000000
    15  C   -0.000000   0.000000  -0.000000   0.000000  -0.000000  -0.000000
    16  C   -0.000009   0.000000   0.000000  -0.000000   0.000000  -0.000003
    17  H    0.000014  -0.000000   0.000000  -0.000000  -0.000000   0.000078
    18  H   -0.000000  -0.000000   0.000000   0.000000   0.000000  -0.000000
    19  H    0.000000   0.000000  -0.000000   0.000000  -0.000000   0.000000
    20  H    0.000002   0.000002   0.000021   0.000023   0.000106   0.000000
    21  H   -0.000000   0.000003  -0.000030   0.000214   0.000295   0.000000
    22  H    0.000000  -0.000000   0.000002   0.000004  -0.000001   0.000000
    23  H    0.000000   0.000000  -0.000000  -0.000000  -0.000000   0.000000
    24  H   -0.000000   0.000000  -0.000000  -0.000000   0.000000   0.000003
    25  S   -0.000576   0.003002  -0.000001  -0.000003   0.000022  -0.000371
    26  S    0.003263  -0.000633   0.000108  -0.000414  -0.003012  -0.000003
    27  C   -0.000979  -0.000003   0.000000  -0.000000   0.000000  -0.041052
    28  C    0.007598   0.000000  -0.000000   0.000000  -0.000000   0.415000
    29  C   -0.040123  -0.000000  -0.000000   0.000000   0.000000  -0.043174
    30  C    0.421264   0.000000   0.000000   0.000000  -0.000000   0.007604
    31  C    0.000000   0.420541  -0.037144   0.007489  -0.000695   0.000000
    32  C   -0.000000  -0.039329   0.411084  -0.041762   0.007498   0.000000
    33  C    0.000000   0.007677  -0.041749   0.414623  -0.038133   0.000000
    34  C   -0.000003  -0.000913   0.006943  -0.042656   0.422388  -0.000000
    35  C   -0.000078   0.008971   0.000253   0.008900  -0.048506  -0.000000
    36  C    0.000009  -0.045503   0.007469  -0.000277   0.007342  -0.000000
    37  C    0.000041  -0.011955  -0.000466  -0.000002  -0.000300   0.000010
    38  C   -0.011871   0.000123   0.000016   0.000010  -0.000106  -0.000002
    39  C   -0.044442   0.000013  -0.000000  -0.000000  -0.000010  -0.000370
    40  C    0.009161  -0.000092  -0.000000  -0.000000   0.000001   0.008838
    41  H    0.000061   0.000000  -0.000000   0.000000   0.000000  -0.007735
    42  H   -0.007613   0.000000   0.000000   0.000000  -0.000000  -0.007412
    43  H    0.567736   0.000000   0.000000  -0.000000   0.000000  -0.000304
    44  H    0.000000   0.567971  -0.007597  -0.000302   0.000059   0.000000
    45  H    0.000000  -0.007597   0.569314  -0.007381  -0.000312   0.000000
    46  H   -0.000000  -0.000302  -0.007381   0.569298  -0.007819  -0.000000
    47  H    0.000000   0.000059  -0.000312  -0.007819   0.562432   0.000000
    48  H   -0.000304   0.000000   0.000000  -0.000000   0.000000   0.568515
 Mulliken charges:
               1
     1  S    0.358677
     2  S    0.273850
     3  C   -0.069448
     4  C   -0.088645
     5  C   -0.107195
     6  C   -0.044844
     7  C   -0.016022
     8  C   -0.115106
     9  C   -0.079204
    10  C   -0.075058
    11  C   -0.191732
    12  C   -0.013774
    13  C   -0.190160
    14  C   -0.190743
    15  C    0.012251
    16  C   -0.233441
    17  H    0.108669
    18  H    0.094674
    19  H    0.093432
    20  H    0.109821
    21  H    0.088736
    22  H    0.093924
    23  H    0.094322
    24  H    0.093989
    25  S    0.272255
    26  S    0.249734
    27  C   -0.064374
    28  C   -0.088540
    29  C   -0.109380
    30  C   -0.052672
    31  C   -0.043570
    32  C   -0.094386
    33  C   -0.082640
    34  C   -0.070286
    35  C   -0.264070
    36  C    0.058606
    37  C   -0.169922
    38  C   -0.148976
    39  C    0.000094
    40  C   -0.190764
    41  H    0.099565
    42  H    0.099565
[...]
 Alpha  occ. eigenvalues --   -5.92739  -5.92739  -5.92267  -5.92267  -0.92302
 Alpha  occ. eigenvalues --   -0.88212  -0.84135  -0.82097  -0.77756  -0.77358
 Alpha  occ. eigenvalues --   -0.73954  -0.72123  -0.70016  -0.64604  -0.61534
 Alpha  occ. eigenvalues --   -0.59365  -0.58463  -0.56987  -0.51417  -0.50220
 Alpha  occ. eigenvalues --   -0.49097  -0.47492  -0.45651  -0.45496  -0.43992
 Alpha  occ. eigenvalues --   -0.43459  -0.43123  -0.40830  -0.40503  -0.39185
 Alpha  occ. eigenvalues --   -0.37284  -0.36629  -0.36204  -0.34755  -0.34568
 Alpha  occ. eigenvalues --   -0.34541  -0.32716  -0.28877  -0.28202  -0.24977
 Alpha  occ. eigenvalues --   -0.22873  -0.21142
 Alpha virt. eigenvalues --   -0.05634  -0.02355  -0.01598  -0.00538   0.00529
 Alpha virt. eigenvalues --    0.01813   0.04007   0.04132   0.04931   0.06274
 Alpha virt. eigenvalues --    0.07391   0.07898   0.08378   0.11281   0.12155
 Alpha virt. eigenvalues --    0.12961   0.13135   0.13213   0.14000   0.15844
 Alpha virt. eigenvalues --    0.16154   0.17705   0.19341   0.20644   0.23011
 Alpha virt. eigenvalues --    0.23155   0.24325   0.26898   0.27563   0.27685
 Alpha virt. eigenvalues --    0.28436   0.28987   0.29456   0.32878   0.34470
 Alpha virt. eigenvalues --    0.35827   0.37143   0.37441   0.38214   0.38784
 Alpha virt. eigenvalues --    0.38883   0.39778   0.40122   0.40604   0.41645
 Alpha virt. eigenvalues --    0.42095   0.42530   0.42664   0.44115   0.44468
 Alpha virt. eigenvalues --    0.44601   0.45384   0.45598   0.45806   0.45854
 Alpha virt. eigenvalues --    0.48376   0.49289   0.49469   0.50768   0.51611
 Alpha virt. eigenvalues --    0.53255   0.54814   0.56289   0.57146   0.58053
 Alpha virt. eigenvalues --    0.58699   0.59093   0.59418   0.59907   0.60359
 Alpha virt. eigenvalues --    0.60411   0.61633   0.62056   0.63624   0.63701
 Alpha virt. eigenvalues --    0.64647   0.66103   0.69589   0.70213   0.71869
 Alpha virt. eigenvalues --    0.72254   0.72781   0.73141   0.73662   0.74647
 Alpha virt. eigenvalues --    0.75797   0.76581   0.77499   0.78874   0.80150
 Alpha virt. eigenvalues --    0.80162   0.81842   0.83225   0.84213   0.84656
 Alpha virt. eigenvalues --    0.85760   0.85988   0.88325   0.88907   0.90284
 Alpha virt. eigenvalues --    0.90749   0.92271   0.93486   0.95972   0.96735
 Alpha virt. eigenvalues --    0.96753   0.98696   0.99409   1.00269   1.01682
 Alpha virt. eigenvalues --    1.02841   1.06057   1.06378   1.07540   1.08927
 Alpha virt. eigenvalues --    1.08966   1.09370   1.10726   1.11288   1.15743
 Alpha virt. eigenvalues --    1.18261   1.20258   1.21823   1.22319   1.24553
 Alpha virt. eigenvalues --    1.27961   1.28573   1.28963   1.34786   1.38699
 Alpha virt. eigenvalues --    1.40575   1.41488   1.42794   1.44201   1.44815
 Alpha virt. eigenvalues --    1.47146   1.47767   1.48942   1.52381   1.53863
 Alpha virt. eigenvalues --    1.53968   1.55929   1.56261   1.57906   1.58887
 Alpha virt. eigenvalues --    1.59642   1.60508   1.61021   1.61377   1.62167
 Alpha virt. eigenvalues --    1.63005   1.67110   1.69298   1.70367   1.71951
 Alpha virt. eigenvalues --    1.72872   1.73402   1.74565   1.75625   1.80208
 Alpha virt. eigenvalues --    1.80449   1.81565   1.82362   1.83269   1.83805
 Alpha virt. eigenvalues --    1.84229   1.86699   1.88786   1.89364   1.89440
 Alpha virt. eigenvalues --    1.89832   1.90823   1.90933   1.93661   1.93791
 Alpha virt. eigenvalues --    1.93884   1.96146   1.96192   1.98879   1.99490
 Alpha virt. eigenvalues --    2.00049   2.01111   2.02442   2.03435   2.06509
 Alpha virt. eigenvalues --    2.08045   2.10951   2.12006   2.14109   2.22431
 Alpha virt. eigenvalues --    2.25160   2.26306   2.26613   2.27653   2.32650
 Alpha virt. eigenvalues --    2.32800   2.32874   2.33279   2.34000   2.35759
 Alpha virt. eigenvalues --    2.37461   2.40468   2.47840   2.51992   2.53565
 Alpha virt. eigenvalues --    2.55488   2.56345   2.57262   2.59883   2.60227
 Alpha virt. eigenvalues --    2.61400   2.61610   2.62145   2.63709   2.64452
 Alpha virt. eigenvalues --    2.65123   2.65896   2.68911   2.68924   2.68999
 Alpha virt. eigenvalues --    2.70410   2.71688   2.73533   2.77368   2.79988
 Alpha virt. eigenvalues --    2.81351   2.81647   2.82207   2.83175   2.83583
 Alpha virt. eigenvalues --    2.87662   2.91705   2.92379   2.97020   3.03978
 Alpha virt. eigenvalues --    3.04299   3.07287   3.10371   3.15514   3.17190
 Alpha virt. eigenvalues --    3.23369   3.24266   3.29670   3.30263   3.31901
 Alpha virt. eigenvalues --    3.34398   3.38725   3.42628   3.44597   3.45777
 Alpha virt. eigenvalues --    3.50498   3.54556   3.55826   3.62654   3.75967
 Alpha virt. eigenvalues --    3.82196   3.98588   4.00437   4.01595   4.03790
 Alpha virt. eigenvalues --    4.11484   4.11840   4.19784   4.54946   4.79699
 Alpha virt. eigenvalues --    4.79826   7.81119   7.83950  17.19636  17.21066
 Alpha virt. eigenvalues --   17.43715  17.51189  17.52287  17.53379  23.35373
 Alpha virt. eigenvalues --   23.53811  23.68918  23.85655  23.85823  23.90157
 Alpha virt. eigenvalues --   23.92087  23.98132  24.01115  24.03741  24.07284
 Alpha virt. eigenvalues --   24.07407  24.14660  24.14770 188.92517 188.95387
          Condensed to atoms (all electrons):
              25         26         27         28         29         30
    25  S   15.370522   0.009509  -0.061459   0.005886  -0.000104   0.009383
    26  S    0.009509  15.370524  -0.000169  -0.000038   0.000327   0.002372
    27  C   -0.061459  -0.000169   4.861974   0.512596  -0.040615  -0.053513
    28  C    0.005886  -0.000038   0.512596   4.879626   0.492494  -0.051847
    29  C   -0.000104   0.000327  -0.040615   0.492494   4.878964   0.511505
    30  C    0.009383   0.002372  -0.053513  -0.051847   0.511505   4.875461
    31  C    0.002372   0.009384  -0.000001   0.000000  -0.000000  -0.000001
    32  C    0.000327  -0.000104   0.000000  -0.000000   0.000000  -0.000000
    33  C   -0.000038   0.005886  -0.000000   0.000000  -0.000000   0.000000
    34  C   -0.000169  -0.061459   0.000000  -0.000000   0.000000  -0.000001
    35  C    0.008663   0.306203   0.000033  -0.000002   0.000002  -0.000301
    36  C   -0.070640  -0.088260  -0.000510   0.000027  -0.000018   0.000095
    37  C    0.316759  -0.092102  -0.000489  -0.000022  -0.000613   0.011534
    38  C   -0.092102   0.316759   0.017259  -0.001042   0.013327  -0.089225
    39  C   -0.088260  -0.070641   0.006575  -0.049980  -0.029886   0.486126
    40  C    0.306203   0.008663   0.443283  -0.047945  -0.054767  -0.045305
    41  H   -0.003185   0.000023   0.419542  -0.037064   0.007348  -0.000568
    42  H    0.000110  -0.000002   0.007001  -0.041818   0.411183  -0.038059
    43  H   -0.000642   0.003289  -0.000908   0.007554  -0.039506   0.419764
    44  H    0.003289  -0.000642  -0.000003   0.000000  -0.000000   0.000000
    45  H   -0.000002   0.000110   0.000000  -0.000000  -0.000000   0.000000
    46  H   -0.000003  -0.000371  -0.000000   0.000000   0.000000   0.000000
    47  H    0.000023  -0.003185   0.000000  -0.000000   0.000000  -0.000000
    48  H   -0.000371  -0.000003  -0.041209   0.413909  -0.042678   0.007628
              31         32         33         34         35         36
    25  S    0.002372   0.000327  -0.000038  -0.000169   0.008663  -0.070640
    26  S    0.009384  -0.000104   0.005886  -0.061459   0.306203  -0.088260
    27  C   -0.000001   0.000000  -0.000000   0.000000   0.000033  -0.000510
    28  C    0.000000  -0.000000   0.000000  -0.000000  -0.000002   0.000027
    29  C   -0.000000   0.000000  -0.000000   0.000000   0.000002  -0.000018
    30  C   -0.000001  -0.000000   0.000000  -0.000001  -0.000301   0.000095
    31  C    4.875462   0.511504  -0.051846  -0.053513  -0.045304   0.486125
    32  C    0.511504   4.878964   0.492494  -0.040615  -0.054768  -0.029886
    33  C   -0.051846   0.492494   4.879627   0.512595  -0.047944  -0.049980
    34  C   -0.053513  -0.040615   0.512595   4.861975   0.443282   0.006576
    35  C   -0.045304  -0.054768  -0.047944   0.443282   5.390489   0.412305
    36  C    0.486125  -0.029886  -0.049980   0.006576   0.412305   4.949769
    37  C   -0.089226   0.013327  -0.001042   0.017259  -0.096660   0.392879
    38  C    0.011534  -0.000613  -0.000022  -0.000490  -0.086683  -0.014512
    39  C    0.000095  -0.000018   0.000027  -0.000510   0.003450   0.021086
    40  C   -0.000301   0.000002  -0.000002   0.000033  -0.000008   0.003450
    41  H   -0.000000   0.000000  -0.000000   0.000000   0.000001  -0.000009
    42  H    0.000000  -0.000000  -0.000000   0.000000  -0.000000  -0.000000
    43  H    0.000000  -0.000000   0.000000  -0.000003  -0.000107   0.000013
    44  H    0.419764  -0.039506   0.007554  -0.000908   0.008942  -0.045792
    45  H   -0.038059   0.411183  -0.041818   0.007001   0.000281   0.007543
    46  H    0.007628  -0.042678   0.413909  -0.041209   0.008883  -0.000338
    47  H   -0.000568   0.007348  -0.037064   0.419542  -0.047523   0.007228
    48  H    0.000000   0.000000   0.000000  -0.000000  -0.000000  -0.000000
              37         38         39         40         41         42
    25  S    0.316759  -0.092102  -0.088260   0.306203  -0.003185   0.000110
    26  S   -0.092102   0.316759  -0.070641   0.008663   0.000023  -0.000002
    27  C   -0.000489   0.017259   0.006575   0.443283   0.419542   0.007001
    28  C   -0.000022  -0.001042  -0.049980  -0.047945  -0.037064  -0.041818
    29  C   -0.000613   0.013327  -0.029886  -0.054767   0.007348   0.411183
    30  C    0.011534  -0.089225   0.486126  -0.045305  -0.000568  -0.038059
    31  C   -0.089226   0.011534   0.000095  -0.000301  -0.000000   0.000000
    32  C    0.013327  -0.000613  -0.000018   0.000002   0.000000  -0.000000
    33  C   -0.001042  -0.000022   0.000027  -0.000002  -0.000000  -0.000000
    34  C    0.017259  -0.000490  -0.000510   0.000033   0.000000   0.000000
    35  C   -0.096660  -0.086683   0.003450  -0.000008   0.000001  -0.000000
    36  C    0.392879  -0.014512   0.021086   0.003450  -0.000009  -0.000000
    37  C    5.459036   0.363441  -0.014512  -0.086683  -0.000118   0.000016
    38  C    0.363441   5.459034   0.392880  -0.096659  -0.000333  -0.000469
    39  C   -0.014512   0.392880   4.949767   0.412306   0.007228   0.007543
    40  C   -0.086683  -0.096659   0.412306   5.390489  -0.047523   0.000281
    41  H   -0.000118  -0.000333   0.007228  -0.047523   0.565102  -0.000321
    42  H    0.000016  -0.000469   0.007543   0.000281  -0.000321   0.571821
    43  H    0.000092  -0.012023  -0.045792   0.008941   0.000064  -0.007644
    44  H   -0.012023   0.000092   0.000013  -0.000107   0.000000   0.000000
    45  H   -0.000469   0.000016  -0.000000  -0.000000  -0.000000   0.000000
    46  H   -0.000002   0.000010  -0.000000  -0.000000   0.000000   0.000000
    47  H   -0.000333  -0.000118  -0.000009   0.000001   0.000000  -0.000000
    48  H    0.000010  -0.000002  -0.000338   0.008883  -0.007754  -0.007454
              43         44         45         46         47         48
    25  S   -0.000642   0.003289  -0.000002  -0.000003   0.000023  -0.000371
    26  S    0.003289  -0.000642   0.000110  -0.000371  -0.003185  -0.000003
    27  C   -0.000908  -0.000003   0.000000  -0.000000   0.000000  -0.041209
    28  C    0.007554   0.000000  -0.000000   0.000000  -0.000000   0.413909
    29  C   -0.039506  -0.000000  -0.000000   0.000000   0.000000  -0.042678
    30  C    0.419764   0.000000   0.000000   0.000000  -0.000000   0.007628
    31  C    0.000000   0.419764  -0.038059   0.007628  -0.000568   0.000000
    32  C   -0.000000  -0.039506   0.411183  -0.042678   0.007348   0.000000
    33  C    0.000000   0.007554  -0.041818   0.413909  -0.037064   0.000000
    34  C   -0.000003  -0.000908   0.007001  -0.041209   0.419542  -0.000000
    35  C   -0.000107   0.008942   0.000281   0.008883  -0.047523  -0.000000
    36  C    0.000013  -0.045792   0.007543  -0.000338   0.007228  -0.000000
    37  C    0.000092  -0.012023  -0.000469  -0.000002  -0.000333   0.000010
    38  C   -0.012023   0.000092   0.000016   0.000010  -0.000118  -0.000002
    39  C   -0.045792   0.000013  -0.000000  -0.000000  -0.000009  -0.000338
    40  C    0.008941  -0.000107  -0.000000  -0.000000   0.000001   0.008883
    41  H    0.000064   0.000000  -0.000000   0.000000   0.000000  -0.007754
    42  H   -0.007644   0.000000   0.000000   0.000000  -0.000000  -0.007454
    43  H    0.571387   0.000000   0.000000   0.000000   0.000000  -0.000308
    44  H    0.000000   0.571387  -0.007644  -0.000308   0.000064   0.000000
    45  H    0.000000  -0.007644   0.571821  -0.007455  -0.000321   0.000000
    46  H    0.000000  -0.000308  -0.007455   0.570654  -0.007754  -0.000000
    47  H    0.000000   0.000064  -0.000321  -0.007754   0.565102   0.000000
    48  H   -0.000308   0.000000   0.000000  -0.000000   0.000000   0.570654
 Mulliken charges:
               1
     1  S    0.000000
     2  S    0.000000
     3  C    0.000000
     4  C    0.000000
     5  C    0.000000
     6  C    0.000000
     7  C    0.000000
     8  C    0.000000
     9  C    0.000000
    10  C    0.000000
    11  C    0.000000
    12  C    0.000000
    13  C    0.000000
    14  C    0.000000
    15  C    0.000000
    16  C    0.000000
    17  H    0.000000
    18  H    0.000000
    19  H    0.000000
    20  H    0.000000
    21  H    0.000000
    22  H    0.000000
    23  H    0.000000
    24  H    0.000000
    25  S    0.283931
    26  S    0.283930
    27  C   -0.069388
    28  C   -0.082334
    29  C   -0.106961
    30  C   -0.045050
    31  C   -0.045050
    32  C   -0.106961
    33  C   -0.082334
    34  C   -0.069388
    35  C   -0.203233
    36  C    0.012852
    37  C   -0.180058
    38  C   -0.180058
    39  C    0.012852
    40  C   -0.203233
    41  H    0.097567
    42  H    0.097813
    43  H    0.095828
    44  H    0.095828
    45  H    0.097813
    46  H    0.099034
    47  H    0.097567
    48  H    0.099034
 Sum of Mulliken charges =  -0.00000
 Mulliken charges with hydrogens summed into heavy atoms:
               1
     1  S    0.000000
     2  S    0.000000
     3  C    0.000000
     4  C    0.000000
     5  C    0.000000
     6  C    0.000000
     7  C    0.000000
     8  C    0.000000
     9  C    0.000000
    10  C    0.000000
    11  C    0.000000
    12  C    0.000000
    13  C    0.000000
    14  C    0.000000
    15  C    0.000000
    16  C    0.000000
    25  S    0.283931
    26  S    0.283930
    27  C    0.028179
    28  C    0.016700
    29  C   -0.009148
    30  C    0.050778
    31  C    0.050778
    32  C   -0.009148
    33  C    0.016700
    34  C    0.028179
    35  C   -0.203233
    36  C    0.012852
    37  C   -0.180058
    38  C   -0.180058
    39  C    0.012852
    40  C   -0.203233
         Mulliken charges condensed to fragments:
      1      0.000000
      2     -0.000000
 Electronic spatial extent (au):  <R**2>=           7143.0933
 Charge=             -0.0000 electrons
 Dipole moment (field-independent basis, Debye):
    X=             -0.0000    Y=             -0.0000    Z=              0.0000  Tot=              0.0000
 Quadrupole moment (field-independent basis, Debye-Ang):
   XX=            -91.4464   YY=           -110.3139   ZZ=            -98.5157
   XY=             -7.7217   XZ=              0.2792   YZ=              2.9035
 Traceless Quadrupole moment (field-independent basis, Debye-Ang):
   XX=              8.6456   YY=            -10.2219   ZZ=              1.5763
   XY=             -7.7217   XZ=              0.2792   YZ=              2.9035
 Octapole moment (field-independent basis, Debye-Ang**2):
  XXX=            223.6543  YYY=            776.6063  ZZZ=            -57.4549  XYY=            126.1734
  XXY=            227.1835  XXZ=            -18.2325  XZZ=             80.4231  YZZ=            232.3113
  YYZ=            -35.0722  XYZ=             -4.5231
 Hexadecapole moment (field-independent basis, Debye-Ang**3):
 XXXX=          -4226.9952 YYYY=          -4413.9675 ZZZZ=          -1196.0265 XXXY=            -14.8385
 XXXZ=            155.1826 YYYX=             28.1651 YYYZ=             62.1086 ZZZX=            106.1379
 ZZZY=             28.2121 XXYY=          -1444.8841 XXZZ=           -895.1828 YYZZ=           -871.2800
 XXYZ=             28.5159 YYXZ=             42.6435 ZZXY=             13.2773
 N-N= 1.192162449365D+03 E-N=-5.527361723555D+03  KE= 1.331399855931D+03
 CPIOFr:  IOpCl= 0 IRwI=-1 IRwCP=  731 ICalc=  4 LCPTot=      762852 Len1MO=     1998050 IndFrg=    10753102
 CPIOFr:  IOpCl= 0 IRwI=-2 IRwCP=  731 ICalc=  0 LCPTot=      762852 Len1MO=     1998050 IndFrg=     2760902
 Counterpoise corrected energy =   -2669.807066202452
                   BSSE energy =       0.003339841864
              sum of fragments =   -2669.794635180513
           complexation energy =      -9.90 kcal/mole (raw)
           complexation energy =      -7.80 kcal/mole (corrected)
 1\1\GINC-CMDELL86\SP\RB3LYP\6-311G(d,p)\C28H16S4\OHNO\14-Jul-2021\0\\#
 b3lyp/6-311G** EmpiricalDispersion=GD3 counterpoise=2\\BTBT dimer b3ly
 p/6-311G**\\0,1\S,0,1.6203193263,0.9333401805,-0.9655543418\S,0,-1.620
 3215046,-0.9333388826,0.9655526073\C,0,0.7607010875,0.432046614,-3.596
 4890673\C,0,-0.1990145233,-0.0970811798,-4.456605144\C,0,-1.3358730484
 ,-0.7617409166,-3.9518894629\C,0,-1.5484008838,-0.8661903564,-2.581713
 2069\C,0,1.5483981093,0.866196593,2.581713372\C,0,1.3358706776,0.76174
 32744,3.9518892671\C,0,0.19901583,0.0970776341,4.4566055645\C,0,-0.760
 6973501,-0.4320550248,3.5964887592\C,0,-0.5418750743,-0.3467155574,2.2
 136722139\C,0,0.5874862401,0.3462927079,1.6917199634\C,0,0.5677107081,
 0.3035896045,0.2629304608\C,0,-0.5677107915,-0.3035871419,-0.262930279
 8\C,0,-0.5874867399,-0.3462921765,-1.6917195198\C,0,0.5418798052,0.346
 711325,-2.2136710574\H,0,1.6351619757,0.9441051055,-3.9892419249\H,0,-
 2.069015815,-1.1685664408,-4.6425298944\H,0,-2.4232632237,-1.382224776
 ,-2.1937042881\H,0,2.4232592385,1.3822352091,2.193705084\H,0,2.0690081
 682,1.1685767873,4.6425301772\H,0,0.0489377359,0.0282464127,5.53031334
 02\H,0,-1.6351576368,-0.9441151195,3.9892396112\H,0,-0.0489323111,-0.0
 282538749,-5.5303122329\S,0,1.3046806737,4.9683401805,-0.9655543418\S,
 0,4.5453215046,3.1016611174,0.9655526073\C,0,2.1642989125,4.467046614,
 -3.5964890673\C,0,3.1240145233,3.9379188202,-4.456605144\C,0,4.2608730
 484,3.2732590834,-3.9518894629\C,0,4.4734008838,3.1688096436,-2.581713
 2069\C,0,1.3766018907,4.901196593,2.581713372\C,0,1.5891293224,4.79674
 32744,3.9518892671\C,0,2.72598417,4.1320776341,4.4566055645\C,0,3.6856
 973501,3.6029449752,3.5964887592\C,0,3.4668750743,3.6882844426,2.21367
 22139\C,0,2.3375137599,4.3812927079,1.6917199634\C,0,2.3572892919,4.33
 85896045,0.2629304608\C,0,3.4927107915,3.7314128581,-0.2629302798\C,0,
 3.5124867399,3.6887078235,-1.6917195198\C,0,2.3831201948,4.381711325,-
 2.2136710574\H,0,1.2898380243,4.9791051055,-3.9892419249\H,0,4.9940158
 15,2.8664335592,-4.6425298944\H,0,5.3482632237,2.652775224,-2.19370428
 81\H,0,0.5017407615,5.4172352091,2.193705084\H,0,0.8559918318,5.203576
 7873,4.6425301772\H,0,2.8760622641,4.0632464127,5.5303133402\H,0,4.560
 1576368,3.0908848805,3.9892396112\H,0,2.9739323111,4.0067461251,-5.530
 3122329\\Version=ES64L-G16RevA.03\State=1-A\HF=-1334.8973181\RMSD=8.91
 4e-09\Dipole=0.1095497,0.3386325,0.0244303\Quadrupole=-2.5953295,-13.7
 14217,16.3095465,-1.1467143,-0.3419619,0.8461488\PG=C01 [X(C28H16S4)]\
 \@


 We make a living by what we get,
 we make a life by what we give.
                   -- Sir Winston Churchill
 Job cpu time:       0 days  2 hours 20 minutes 33.3 seconds.
 Elapsed time:       0 days  0 hours  3 minutes 33.7 seconds.
 File lengths (MBytes):  RWF=    395 Int=      0 D2E=      0 Chk=    113 Scr=      2
 Normal termination of Gaussian 16 at Wed Jul 14 12:23:52 2021.
