 Entering Gaussian System, Link 0=g16
 Initial command:
 /home/g03/g16/l1.exe "/home/scr/21098/Gau-185121.inp" -scrdir="/home/scr/21098/"
 Entering Link 1 = /home/g03/g16/l1.exe PID=    185122.
  
 Copyright (c) 1988,1990,1992,1993,1995,1998,2003,2009,2016,
            Gaussian, Inc.  All Rights Reserved.
  
 This is part of the Gaussian(R) 16 program.  It is based on
 the Gaussian(R) 09 system (copyright 2009, Gaussian, Inc.),
 the Gaussian(R) 03 system (copyright 2003, Gaussian, Inc.),
 the Gaussian(R) 98 system (copyright 1998, Gaussian, Inc.),
 the Gaussian(R) 94 system (copyright 1995, Gaussian, Inc.),
 the Gaussian 92(TM) system (copyright 1992, Gaussian, Inc.),
 the Gaussian 90(TM) system (copyright 1990, Gaussian, Inc.),
 the Gaussian 88(TM) system (copyright 1988, Gaussian, Inc.),
 the Gaussian 86(TM) system (copyright 1986, Carnegie Mellon
 University), and the Gaussian 82(TM) system (copyright 1983,
 Carnegie Mellon University). Gaussian is a federally registered
 trademark of Gaussian, Inc.
  
 This software contains proprietary and confidential information,
 including trade secrets, belonging to Gaussian, Inc.
  
 This software is provided under written license and may be
 used, copied, transmitted, or stored only in accord with that
 written license.
  
 The following legend is applicable only to US Government
 contracts under FAR:
  
                    RESTRICTED RIGHTS LEGEND
  
 Use, reproduction and disclosure by the US Government is
 subject to restrictions as set forth in subparagraphs (a)
 and (c) of the Commercial Computer Software - Restricted
 Rights clause in FAR 52.227-19.
  
 Gaussian, Inc.
 340 Quinnipiac St., Bldg. 40, Wallingford CT 06492
  
  
 ---------------------------------------------------------------
 Warning -- This program may not be used in any manner that
 competes with the business of Gaussian, Inc. or will provide
 assistance to any competitor of Gaussian, Inc.  The licensee
 of this program is prohibited from giving any competitor of
 Gaussian, Inc. access to this program.  By using this program,
 the user acknowledges that Gaussian, Inc. is engaged in the
 business of creating and licensing software in the field of
 computational chemistry and represents and warrants to the
 licensee that it is not a competitor of Gaussian, Inc. and that
 it will not use this program in any manner prohibited above.
 ---------------------------------------------------------------
  

 Cite this work as:
 Gaussian 16, Revision A.03,
 M. J. Frisch, G. W. Trucks, H. B. Schlegel, G. E. Scuseria, 
 M. A. Robb, J. R. Cheeseman, G. Scalmani, V. Barone, 
 G. A. Petersson, H. Nakatsuji, X. Li, M. Caricato, A. V. Marenich, 
 J. Bloino, B. G. Janesko, R. Gomperts, B. Mennucci, H. P. Hratchian, 
 J. V. Ortiz, A. F. Izmaylov, J. L. Sonnenberg, D. Williams-Young, 
 F. Ding, F. Lipparini, F. Egidi, J. Goings, B. Peng, A. Petrone, 
 T. Henderson, D. Ranasinghe, V. G. Zakrzewski, J. Gao, N. Rega, 
 G. Zheng, W. Liang, M. Hada, M. Ehara, K. Toyota, R. Fukuda, 
 J. Hasegawa, M. Ishida, T. Nakajima, Y. Honda, O. Kitao, H. Nakai, 
 T. Vreven, K. Throssell, J. A. Montgomery, Jr., J. E. Peralta, 
 F. Ogliaro, M. J. Bearpark, J. J. Heyd, E. N. Brothers, K. N. Kudin, 
 V. N. Staroverov, T. A. Keith, R. Kobayashi, J. Normand, 
 K. Raghavachari, A. P. Rendell, J. C. Burant, S. S. Iyengar, 
 J. Tomasi, M. Cossi, J. M. Millam, M. Klene, C. Adamo, R. Cammi, 
 J. W. Ochterski, R. L. Martin, K. Morokuma, O. Farkas, 
 J. B. Foresman, and D. J. Fox, Gaussian, Inc., Wallingford CT, 2016.
 
 ******************************************
 Gaussian 16:  ES64L-G16RevA.03 25-Dec-2016
                14-Jul-2021 
 ******************************************
 %NProcShared=40
 Will use up to   40 processors via shared memory.
 %Mem=15GB
 ------------------------------------------------------
 #b3lyp/6-311G** EmpiricalDispersion=GD3 counterpoise=2
 ------------------------------------------------------
 1/38=1,62=2,172=1/1;
 2/12=2,17=6,18=5,40=1/2;
 1/38=1,53=2,62=2,63=1/22;
 3/5=4,6=6,7=101,11=2,25=1,30=1,74=-5,124=31/1,2,3;
 4//1;
 5/5=2,38=5/2;
 6/7=2,8=2,9=2,10=2,28=1/1;
 1/53=2,62=2,63=1/22;
 3/5=7,6=11,7=101,11=2,25=1,30=1,74=-5,82=7,124=31/1,2,3;
 4//1;
 5/5=2,38=5/2;
 6/7=2,8=2,9=2,10=2,28=1/1;
 1/53=2,62=2,63=1/22(-4);
 99/5=1,9=1/99;
 -------------------------
 BTBT dimer b3lyp/6-311G**
 -------------------------
 Symbolic Z-matrix:
 Charge =  0 Multiplicity = 1 in supermolecule
 Charge =  0 Multiplicity = 1 in fragment      1.
 Charge =  0 Multiplicity = 1 in fragment      2.
 S                     1.62032   0.93334  -0.96555    
 S                    -1.62032  -0.93334   0.96555    
 C                     0.7607    0.43205  -3.59649    
 C                    -0.19901  -0.09708  -4.45661    
 C                    -1.33587  -0.76174  -3.95189    
 C                    -1.5484   -0.86619  -2.58171    
 C                     1.5484    0.8662    2.58171    
 C                     1.33587   0.76174   3.95189    
 C                     0.19902   0.09708   4.45661    
 C                    -0.7607   -0.43206   3.59649    
 C                    -0.54188  -0.34672   2.21367    
 C                     0.58749   0.34629   1.69172    
 C                     0.56771   0.30359   0.26293    
 C                    -0.56771  -0.30359  -0.26293    
 C                    -0.58749  -0.34629  -1.69172    
 C                     0.54188   0.34671  -2.21367    
 H                     1.63516   0.94411  -3.98924    
 H                    -2.06902  -1.16857  -4.64253    
 H                    -2.42326  -1.38222  -2.1937     
 H                     2.42326   1.38224   2.19371    
 H                     2.06901   1.16858   4.64253    
 H                     0.04894   0.02825   5.53031    
 H                    -1.63516  -0.94412   3.98924    
 H                    -0.04893  -0.02825  -5.53031    
 S                    -4.54532  -3.09166  -0.96555    
 S                    -1.30468  -4.95834   0.96555    
 C                    -3.6857   -3.59295  -3.59649    
 C                    -2.72599  -4.12208  -4.45661    
 C                    -1.58913  -4.78674  -3.95189    
 C                    -1.3766   -4.89119  -2.58171    
 C                    -4.4734   -3.1588    2.58171    
 C                    -4.26087  -3.26326   3.95189    
 C                    -3.12402  -3.92792   4.45661    
 C                    -2.1643   -4.45706   3.59649    
 C                    -2.38312  -4.37172   2.21367    
 C                    -3.51249  -3.67871   1.69172    
 C                    -3.49271  -3.72141   0.26293    
 C                    -2.35729  -4.32859  -0.26293    
 C                    -2.33751  -4.37129  -1.69172    
 C                    -3.46688  -3.67829  -2.21367    
 H                    -4.56016  -3.08089  -3.98924    
 H                    -0.85598  -5.19357  -4.64253    
 H                    -0.50174  -5.40722  -2.1937     
 H                    -5.34826  -2.64276   2.19371    
 H                    -4.99401  -2.85642   4.64253    
 H                    -2.97394  -3.99675   5.53031    
 H                    -1.28984  -4.96912   3.98924    
 H                    -2.87607  -4.05325  -5.53031    
 
                          Input orientation:                          
 ---------------------------------------------------------------------
 Center     Atomic      Atomic             Coordinates (Angstroms)
 Number     Number       Type             X           Y           Z
 ---------------------------------------------------------------------
      1         16           0        1.620319    0.933340   -0.965554
      2         16           0       -1.620322   -0.933339    0.965553
      3          6           0        0.760701    0.432047   -3.596489
      4          6           0       -0.199015   -0.097081   -4.456605
      5          6           0       -1.335873   -0.761741   -3.951889
      6          6           0       -1.548401   -0.866190   -2.581713
      7          6           0        1.548398    0.866197    2.581713
      8          6           0        1.335871    0.761743    3.951889
      9          6           0        0.199016    0.097078    4.456606
     10          6           0       -0.760697   -0.432055    3.596489
     11          6           0       -0.541875   -0.346716    2.213672
     12          6           0        0.587486    0.346293    1.691720
     13          6           0        0.567711    0.303590    0.262930
     14          6           0       -0.567711   -0.303587   -0.262930
     15          6           0       -0.587487   -0.346292   -1.691720
     16          6           0        0.541880    0.346711   -2.213671
     17          1           0        1.635162    0.944105   -3.989242
     18          1           0       -2.069016   -1.168566   -4.642530
     19          1           0       -2.423263   -1.382225   -2.193704
     20          1           0        2.423259    1.382235    2.193705
     21          1           0        2.069008    1.168577    4.642530
     22          1           0        0.048938    0.028246    5.530313
     23          1           0       -1.635158   -0.944115    3.989240
     24          1           0       -0.048932   -0.028254   -5.530312
     25         16           0       -4.545319   -3.091660   -0.965554
     26         16           0       -1.304678   -4.958339    0.965553
     27          6           0       -3.685701   -3.592953   -3.596489
     28          6           0       -2.725985   -4.122081   -4.456605
     29          6           0       -1.589127   -4.786741   -3.951889
     30          6           0       -1.376599   -4.891190   -2.581713
     31          6           0       -4.473398   -3.158803    2.581713
     32          6           0       -4.260871   -3.263257    3.951889
     33          6           0       -3.124016   -3.927922    4.456606
     34          6           0       -2.164303   -4.457055    3.596489
     35          6           0       -2.383125   -4.371716    2.213672
     36          6           0       -3.512486   -3.678707    1.691720
     37          6           0       -3.492711   -3.721410    0.262930
     38          6           0       -2.357289   -4.328587   -0.262930
     39          6           0       -2.337513   -4.371292   -1.691720
     40          6           0       -3.466880   -3.678289   -2.213671
     41          1           0       -4.560162   -3.080895   -3.989242
     42          1           0       -0.855984   -5.193566   -4.642530
     43          1           0       -0.501737   -5.407225   -2.193704
     44          1           0       -5.348259   -2.642765    2.193705
     45          1           0       -4.994008   -2.856423    4.642530
     46          1           0       -2.973938   -3.996754    5.530313
     47          1           0       -1.289842   -4.969115    3.989240
     48          1           0       -2.876068   -4.053254   -5.530312
 ---------------------------------------------------------------------
                    Distance matrix (angstroms):
                    1          2          3          4          5
     1  S    0.000000
     2  S    4.208969   0.000000
     3  C    2.812838   5.324075   0.000000
     4  C    4.069297   5.667383   1.393137   0.000000
     5  C    4.531067   4.928650   2.438660   1.410304   0.000000
     6  C    3.986360   3.548630   2.836748   2.434665   1.390489
     7  C    3.548632   3.986363   6.243327   7.315687   7.325105
     8  C    4.928652   4.531069   7.577436   8.590473   8.481093
     9  C    5.667385   4.069299   8.079606   8.924206   8.590474
    10  C    5.324076   2.812839   7.402719   8.079605   7.577436
    11  C    4.052297   1.750707   6.005094   6.683747   6.230315
    12  C    2.910752   2.653147   5.291740   6.214263   6.064435
    13  C    1.736014   2.609819   3.866376   4.798169   4.745868
    14  C    2.609817   1.736015   3.663120   4.214913   3.795840
    15  C    2.653146   2.910750   2.459994   2.803143   2.416826
    16  C    1.750703   4.052296   1.402623   2.403462   2.788553
    17  H    3.023743   6.218759   1.086803   2.160255   3.426128
    18  H    5.616881   5.630919   3.415181   2.163228   1.086273
    19  H    4.818792   3.290459   3.923903   3.423390   2.158387
    20  H    3.290462   4.818795   6.098632   7.300091   7.516385
    21  H    5.630921   5.616882   8.374699   9.462562   9.443696
    22  H    6.744237   4.954605   9.163416   9.990782   9.615298
    23  H    6.218758   3.023743   8.073242   8.608848   7.948859
    24  H    4.954602   6.744235   2.146405   1.086328   2.164633
    25  S    7.363133   4.116204   6.891457   6.328136   4.964601
    26  S    6.855412   4.037357   7.357600   7.365739   6.464800
    27  C    7.454060   5.670235   5.997593   5.011777   3.696453
    28  C    7.525629   6.386734   5.799730   4.752495   3.671381
    29  C    7.206807   6.247473   5.734435   4.917322   4.032960
    30  C    6.746751   5.320440   5.825348   5.280664   4.351022
    31  C    8.152432   3.962917   8.857775   8.785353   7.633999
    32  C    8.739627   4.617274   9.790274   9.860331   8.791070
    33  C    8.691398   4.839016   9.947497  10.132932   9.161056
    34  C    8.011989   4.431063   9.175941   9.366112   8.445097
    35  C    7.367405   3.736590   8.168093   8.217995   7.220997
    36  C    7.394443   3.412426   7.945035   7.849143   6.715405
    37  C    7.022745   3.431160   7.087865   6.801339   5.583574
    38  C    6.633470   3.685105   6.595310   6.336458   5.232027
    39  C    6.658144   4.403973   6.024877   5.521472   4.374987
    40  C    6.978862   4.588245   6.056359   5.341792   4.008596
    41  H    7.965872   6.148548   6.388004   5.304826   3.971890
    42  H    7.562487   7.084091   5.946040   5.142017   4.510915
    43  H    6.798105   5.589972   6.136664   5.780137   5.036618
    44  H    8.445741   4.281123   8.961038   8.787597   7.576663
    45  H    9.463733   5.347914  10.574126  10.648953   9.572549
    46  H    9.359985   5.661610  10.810195  11.074574  10.151883
    47  H    8.237597   5.053651   9.535227   9.811163   8.986971
    48  H    8.119152   7.314850   6.089637   4.895995   3.962029
                    6          7          8          9         10
     6  C    0.000000
     7  C    6.265166   0.000000
     8  C    7.325104   1.390489   0.000000
     9  C    7.315687   2.434666   1.410304   0.000000
    10  C    6.243327   2.836750   2.438660   1.393137   0.000000
    11  C    4.927339   2.444556   2.788550   2.403460   1.402622
    12  C    4.928931   1.409163   2.416825   2.803143   2.459994
    13  C    3.733405   2.579734   3.795839   4.214913   3.663121
    14  C    2.579734   3.733404   4.745867   4.798168   3.866376
    15  C    1.409162   4.928931   6.064435   6.214263   5.291739
    16  C    2.444557   4.927338   6.230314   6.683746   6.005093
    17  H    3.923440   6.571990   7.948861   8.608851   8.073244
    18  H    2.146960   8.331605   9.443696   9.462562   8.374698
    19  H    1.087302   6.605612   7.516383   7.300089   6.098630
    20  H    6.605613   1.087303   2.158387   3.423391   3.923905
    21  H    8.331604   2.146959   1.086273   2.163227   3.415181
    22  H    8.316038   3.412445   2.164633   1.086328   2.146407
    23  H    6.571988   3.923441   3.426129   2.160256   1.086802
    24  H    3.412445   8.316037   9.615296   9.990781   9.163414
    25  S    4.067703   8.085860   8.580114   7.878869   6.496853
    26  S    5.421086   6.684103   6.972091   6.325013   5.263553
    27  C    3.610133   9.243917  10.057713   9.672626   8.383666
    28  C    3.937353   9.627627  10.538178  10.286023   9.073642
    29  C    4.153283   9.191721  10.090144   9.886957   8.753719
    30  C    4.028665   8.268258   9.055447   8.769453   7.644174
    31  C    6.361812   7.243111   7.141125   5.995618   4.716892
    32  C    7.469363   7.257918   6.893775   5.606886   4.515886
    33  C    7.835477   6.951996   6.491401   5.219498   4.306526
    34  C    7.172435   6.568936   6.293916   5.202422   4.262714
    35  C    5.998433   6.559577   6.573030   5.627461   4.479439
    36  C    5.479974   6.860087   6.952160   5.972972   4.662750
    37  C    4.474888   7.199699   7.551310   6.767319   5.421842
    38  C    4.244908   7.094517   7.570707   6.956668   5.712021
    39  C    3.701422   7.797039   8.467120   8.012628   6.780050
    40  C    3.424020   8.294641   8.988572   8.496162   7.184665
    41  H    3.994591   9.801607  10.610873  10.202040   8.887947
    42  H    4.842787   9.730954  10.683351  10.578195   9.516433
    43  H    4.676222   8.146378   8.899511   8.661121   7.638436
    44  H    6.356081   7.747725   7.704510   6.587846   5.282117
    45  H    8.247601   7.804354   7.323625   5.977059   4.989257
    46  H    8.811218   7.265951   6.611291   5.289606   4.620085
    47  H    7.751017   6.639850   6.303848   5.301079   4.584666
    48  H    4.540298  10.468135  11.438390  11.243661  10.044221
                   11         12         13         14         15
    11  C    0.000000
    12  C    1.424132   0.000000
    13  C    2.336551   1.429564   0.000000
    14  C    2.477113   2.361669   1.390818   0.000000
    15  C    3.905658   3.647999   2.361670   1.429564   0.000000
    16  C    4.610503   3.905657   2.477112   2.336551   1.424133
    17  H    6.699392   5.807610   4.430653   4.504973   3.447304
    18  H    7.072136   7.033813   5.760478   4.709883   3.402697
    19  H    4.902741   5.210461   4.221724   2.886940   2.166846
    20  H    3.432447   2.166848   2.886941   4.221724   5.210463
    21  H    3.874555   3.402696   4.709882   5.760477   7.033812
    22  H    3.389656   3.889214   5.300025   5.835413   7.259688
    23  H    2.169053   3.447303   4.504972   4.430651   5.807607
    24  H    7.766190   7.259688   5.835412   5.300024   3.889214
    25  S    5.802565   6.725051   6.259391   4.907993   4.871221
    26  S    4.838051   5.678620   5.629157   4.870216   5.370888
    27  C    7.360684   7.857668   6.940438   5.626225   4.875232
    28  C    7.969713   8.291403   7.260097   6.068439   5.145323
    29  C    7.669727   7.933222   6.951843   5.894945   5.082247
    30  C    6.659184   7.039254   6.233625   5.203572   4.697966
    31  C    4.847697   6.220156   6.540466   5.612366   6.424388
    32  C    5.035726   6.453199   7.045992   6.337490   7.338443
    33  C    4.952095   6.299901   7.008670   6.476459   7.554069
    34  C    4.630264   5.854284   6.421857   5.890290   6.881124
    35  C    4.426153   5.599693   5.862704   5.096956   5.889010
    36  C    4.494345   5.745468   5.877766   4.887105   5.577479
    37  C    4.888905   5.935963   5.717311   4.529202   4.863374
    38  C    5.028378   5.860620   5.503564   4.404908   4.586100
    39  C    5.888431   6.500684   5.840848   4.660457   4.388988
    40  C    6.265493   6.920059   6.186019   4.857899   4.434584
    41  H    7.880261   8.397453   7.472000   6.126867   5.342173
    42  H    8.402270   8.537937   7.503944   6.570836   5.681148
    43  H    6.710837   7.027510   6.308104   5.457047   5.086490
    44  H    5.326685   6.664798   6.885317   5.861779   6.560127
    45  H    5.658575   7.079389   7.752373   7.083264   8.114241
    46  H    5.498892   6.802984   7.666913   7.279497   8.436751
    47  H    5.007861   6.087407   6.718430   6.353706   7.357791
    48  H    8.896976   9.138379   8.025170   6.865408   5.806373
                   16         17         18         19         20
    16  C    0.000000
    17  H    2.169054   0.000000
    18  H    3.874558   4.314058   0.000000
    19  H    3.432447   5.010647   2.483523   0.000000
    20  H    4.902740   6.248351   8.568619   7.097914   0.000000
    21  H    7.072134   8.645583  10.430619   8.568617   2.483523
    22  H    7.766190   9.694165  10.459676   8.231747   4.313194
    23  H    6.699390   8.827034   8.645580   6.248347   5.010648
    24  H    3.389656   2.481240   2.483789   4.313193   8.231747
    25  S    6.265763   7.976743   4.832237   2.988920   8.863281
    26  S    6.454518   8.248121   6.811547   4.901095   7.457128
    27  C    5.941850   7.003623   3.096050   2.906695   9.777436
    28  C    5.973257   6.701066   3.031407   3.566395  10.051808
    29  C    5.823652   6.575715   3.714628   3.921445   9.587692
    30  C    5.590316   6.715841   4.310955   3.682241   8.752109
    31  C    7.774147   9.865385   7.869675   5.492167   8.266527
    32  C    8.608857  10.748333   9.113506   6.684564   8.327629
    33  C    8.729483  10.849828   9.566678   7.155295   8.005670
    34  C    8.009841  10.057424   8.871565   6.561096   7.557171
    35  C    7.100745   9.103885   7.574057   5.325752   7.497311
    36  C    6.920546   8.952207   6.964706   4.642926   7.816534
    37  C    6.241882   8.132840   5.710294   3.556763   8.048217
    38  C    5.836864   7.591202   5.408302   3.523250   7.842333
    39  C    5.551837   7.022407   4.363121   3.032139   8.418109
    40  C    5.680738   7.109853   3.761926   2.522190   8.929032
    41  H    6.397810   7.388008   3.207740   3.267380  10.340045
    42  H    6.208708   6.656095   4.203816   4.793687  10.036370
    43  H    5.847847   6.937556   5.139974   4.460144   8.596612
    44  H    7.940760   9.993130   7.724041   5.421616   8.751978
    45  H    9.376226  11.528114   9.880121   7.450912   8.887003
    46  H    9.549657  11.673809  10.597371   8.173093   8.318426
    47  H    8.371936  10.352680   9.463547   7.237349   7.573026
    48  H    6.483993   6.906496   3.124246   4.297951  10.829952
                   21         22         23         24         25
    21  H    0.000000
    22  H    2.483787   0.000000
    23  H    4.314058   2.481244   0.000000
    24  H   10.459675  11.061203   9.694162   0.000000
    25  S    9.661757   8.546187   6.134409   7.102040   0.000000
    26  S    7.901963   6.894588   5.036456   8.250994   4.208969
    27  C   11.120714  10.505196   8.292427   5.447278   2.812838
    28  C   11.566213  11.165302   9.089646   5.007882   4.069297
    29  C   11.077536  10.760090   8.822099   5.244694   4.531067
    30  C   10.039058   9.593643   7.669659   5.839956   3.986360
    31  C    8.110257   6.269214   3.865434   9.756085   3.548632
    32  C    7.757931   5.647996   3.503453  10.868202   4.928652
    33  C    7.278487   5.183797   3.367230  11.153568   5.667385
    34  C    7.117785   5.362466   3.574212  10.362797   5.324076
    35  C    7.511037   6.022848   3.931989   9.180600   4.052297
    36  C    7.959681   6.415610   4.034966   8.802259   2.910752
    37  C    8.603812   7.372145   5.004923   7.685094   1.736014
    38  C    8.595025   7.637644   5.482433   7.180995   2.609817
    39  C    9.498963   8.786856   6.671742   6.231724   2.653146
    40  C   10.057120   9.277320   7.021895   6.000436   1.750703
    41  H   11.683809  11.024178   8.762285   5.660805   3.023743
    42  H   11.629479  11.470525   9.652585   5.302824   5.616881
    43  H    9.827716   9.460869   7.709266   6.345968   4.818792
    44  H    8.691313   6.884547   4.460547   9.725172   3.290462
    45  H    8.129380   5.877141   3.919896  11.659290   5.630921
    46  H    7.273246   5.033726   3.672307  12.109586   6.744237
    47  H    7.027085   5.398228   4.039786  10.796936   6.218758
    48  H   12.458251  12.147088  10.091009   4.918670   4.954602
                   26         27         28         29         30
    26  S    0.000000
    27  C    5.324075   0.000000
    28  C    5.667383   1.393137   0.000000
    29  C    4.928650   2.438660   1.410304   0.000000
    30  C    3.548630   2.836748   2.434665   1.390489   0.000000
    31  C    3.986363   6.243327   7.315687   7.325105   6.265166
    32  C    4.531069   7.577436   8.590473   8.481093   7.325104
    33  C    4.069299   8.079606   8.924206   8.590474   7.315687
    34  C    2.812839   7.402719   8.079605   7.577436   6.243327
    35  C    1.750707   6.005094   6.683747   6.230315   4.927339
    36  C    2.653147   5.291740   6.214263   6.064435   4.928931
    37  C    2.609819   3.866376   4.798169   4.745868   3.733405
    38  C    1.736015   3.663120   4.214913   3.795840   2.579734
    39  C    2.910750   2.459994   2.803143   2.416826   1.409162
    40  C    4.052296   1.402623   2.403462   2.788553   2.444557
    41  H    6.218759   1.086803   2.160255   3.426128   3.923440
    42  H    5.630919   3.415181   2.163228   1.086273   2.146960
    43  H    3.290459   3.923903   3.423390   2.158387   1.087302
    44  H    4.818795   6.098632   7.300091   7.516385   6.605613
    45  H    5.616882   8.374699   9.462562   9.443696   8.331604
    46  H    4.954605   9.163416   9.990782   9.615298   8.316038
    47  H    3.023743   8.073242   8.608848   7.948859   6.571988
    48  H    6.744235   2.146405   1.086328   2.164633   3.412445
                   31         32         33         34         35
    31  C    0.000000
    32  C    1.390489   0.000000
    33  C    2.434666   1.410304   0.000000
    34  C    2.836750   2.438660   1.393137   0.000000
    35  C    2.444556   2.788550   2.403460   1.402622   0.000000
    36  C    1.409163   2.416825   2.803143   2.459994   1.424132
    37  C    2.579734   3.795839   4.214913   3.663121   2.336551
    38  C    3.733404   4.745867   4.798168   3.866376   2.477113
    39  C    4.928931   6.064435   6.214263   5.291739   3.905658
    40  C    4.927338   6.230314   6.683746   6.005093   4.610503
    41  H    6.571990   7.948861   8.608851   8.073244   6.699392
    42  H    8.331605   9.443696   9.462562   8.374698   7.072136
    43  H    6.605612   7.516383   7.300089   6.098630   4.902741
    44  H    1.087303   2.158387   3.423391   3.923905   3.432447
    45  H    2.146959   1.086273   2.163227   3.415181   3.874555
    46  H    3.412445   2.164633   1.086328   2.146407   3.389656
    47  H    3.923441   3.426129   2.160256   1.086802   2.169053
    48  H    8.316037   9.615296   9.990781   9.163414   7.766190
                   36         37         38         39         40
    36  C    0.000000
    37  C    1.429564   0.000000
    38  C    2.361669   1.390818   0.000000
    39  C    3.647999   2.361670   1.429564   0.000000
    40  C    3.905657   2.477112   2.336551   1.424133   0.000000
    41  H    5.807610   4.430653   4.504973   3.447304   2.169054
    42  H    7.033813   5.760478   4.709883   3.402697   3.874558
    43  H    5.210461   4.221724   2.886940   2.166846   3.432447
    44  H    2.166848   2.886941   4.221724   5.210463   4.902740
    45  H    3.402696   4.709882   5.760477   7.033812   7.072134
    46  H    3.889214   5.300025   5.835413   7.259688   7.766190
    47  H    3.447303   4.504972   4.430651   5.807607   6.699390
    48  H    7.259688   5.835412   5.300024   3.889214   3.389656
                   41         42         43         44         45
    41  H    0.000000
    42  H    4.314058   0.000000
    43  H    5.010647   2.483523   0.000000
    44  H    6.248351   8.568619   7.097914   0.000000
    45  H    8.645583  10.430619   8.568617   2.483523   0.000000
    46  H    9.694165  10.459676   8.231747   4.313194   2.483787
    47  H    8.827034   8.645580   6.248347   5.010648   4.314058
    48  H    2.481240   2.483789   4.313193   8.231747  10.459675
                   46         47         48
    46  H    0.000000
    47  H    2.481244   0.000000
    48  H   11.061203   9.694162   0.000000
 Stoichiometry    C28H16S4
 Framework group  C1[X(C28H16S4)]
 Deg. of freedom   138
 Full point group                 C1      NOp   1
 Largest Abelian subgroup         C1      NOp   1
 Largest concise Abelian subgroup C1      NOp   1
                         Standard orientation:                         
 ---------------------------------------------------------------------
 Center     Atomic      Atomic             Coordinates (Angstroms)
 Number     Number       Type             X           Y           Z
 ---------------------------------------------------------------------
      1         16           0       -0.418873    4.332671    0.408105
      2         16           0       -1.161535    0.369110   -0.797736
      3          6           0        2.366094    4.272523    0.017723
      4          6           0        3.497951    3.569286   -0.388710
      5          6           0        3.403716    2.226511   -0.809463
      6          6           0        2.171290    1.585548   -0.870737
      7          6           0       -3.751701    3.116235    0.481103
      8          6           0       -4.984126    2.475271    0.419831
      9          6           0       -5.078360    1.132494   -0.000915
     10          6           0       -3.946502    0.429255   -0.407343
     11          6           0       -2.698395    1.064444   -0.329176
     12          6           0       -2.593646    2.428326    0.067064
     13          6           0       -1.224210    2.838021    0.045890
     14          6           0       -0.356201    1.863761   -0.435519
     15          6           0        1.013235    2.273455   -0.456693
     16          6           0        1.117984    3.637336   -0.060446
     17          1           0        2.442667    5.307387    0.340730
     18          1           0        4.300873    1.698060   -1.119041
     19          1           0        2.100307    0.549089   -1.191581
     20          1           0       -3.680719    4.152697    0.801943
     21          1           0       -5.881284    3.003724    0.729400
     22          1           0       -6.050556    0.649779   -0.044867
     23          1           0       -4.023073   -0.605609   -0.730348
     24          1           0        4.470146    4.051999   -0.344752
     25         16           0        1.772965   -2.383757   -1.665819
     26         16           0       -0.192554   -2.318021    2.055448
     27          6           0        4.233554   -1.375087   -0.749228
     28          6           0        5.003262   -0.885048    0.303502
     29          6           0        4.480034   -0.814293    1.611242
     30          6           0        3.167410   -1.191006    1.873098
     31          6           0       -1.587003   -3.510769   -1.483472
     32          6           0       -2.899625   -3.887484   -1.221614
     33          6           0       -3.422852   -3.816737    0.086127
     34          6           0       -2.653142   -3.326702    1.138859
     35          6           0       -1.322462   -2.963588    0.884326
     36          6           0       -0.791548   -3.003914   -0.436529
     37          6           0        0.570426   -2.569631   -0.427636
     38          6           0        1.009983   -2.132148    0.817263
     39          6           0        2.371957   -1.697866    0.826157
     40          6           0        2.902872   -1.738199   -0.494698
     41          1           0        4.640106   -1.427496   -1.755761
     42          1           0        5.100539   -0.431181    2.416343
     43          1           0        2.766297   -1.139693    2.882405
     44          1           0       -1.185892   -3.562079   -2.492781
     45          1           0       -3.520134   -4.270588   -2.026716
     46          1           0       -4.451680   -4.112849    0.270355
     47          1           0       -3.059691   -3.274294    2.145393
     48          1           0        6.032091   -0.588941    0.119273
 ---------------------------------------------------------------------
 Rotational constants (GHZ):           0.1328069           0.1272324           0.0744031
 Counterpoise: doing full-system calculation.
 Standard basis: 6-311G(d,p) (5D, 7F)
 There are   736 symmetry adapted cartesian basis functions of A   symmetry.
 There are   704 symmetry adapted basis functions of A   symmetry.
   704 basis functions,  1208 primitive gaussians,   736 cartesian basis functions
   124 alpha electrons      124 beta electrons
       nuclear repulsion energy      3749.3330508604 Hartrees.
 NAtoms=   48 NActive=   48 NUniq=   48 SFac= 1.00D+00 NAtFMM=   60 NAOKFM=F Big=F
 Integral buffers will be    131072 words long.
 Raffenetti 2 integral format.
 Two-electron integral symmetry is turned on.
 Nuclear repulsion after empirical dispersion term =     3749.2717823754 Hartrees.
 One-electron integrals computed using PRISM.
 NBasis=   704 RedAO= T EigKep=  1.61D-04  NBF=   704
 NBsUse=   704 1.00D-06 EigRej= -1.00D+00 NBFU=   704
 ExpMin= 7.71D-02 ExpMax= 9.34D+04 ExpMxC= 3.17D+03 IAcc=3 IRadAn=         5 AccDes= 0.00D+00
 Harris functional with IExCor=  402 and IRadAn=       5 diagonalized for initial guess.
 HarFok:  IExCor=  402 AccDes= 0.00D+00 IRadAn=         5 IDoV= 1 UseB2=F ITyADJ=14
 ICtDFT=  3500011 ScaDFX=  1.000000  1.000000  1.000000  1.000000
 FoFCou: FMM=F IPFlag=           0 FMFlag=      100000 FMFlg1=           0
         NFxFlg=           0 DoJE=T BraDBF=F KetDBF=T FulRan=T
         wScrn=  0.000000 ICntrl=       500 IOpCl=  0 I1Cent=   200000004 NGrid=           0
         NMat0=    1 NMatS0=      1 NMatT0=    0 NMatD0=    1 NMtDS0=    0 NMtDT0=    0
 Petite list used in FoFCou.
 Requested convergence on RMS density matrix=1.00D-08 within 128 cycles.
 Requested convergence on MAX density matrix=1.00D-06.
 Requested convergence on             energy=1.00D-06.
 No special actions if energy rises.
 Integral accuracy reduced to 1.0D-05 until final iterations.
 Initial convergence to 1.0D-05 achieved.  Increase integral accuracy.
 SCF Done:  E(RB3LYP) =  -2669.81040550     A.U. after   15 cycles
            NFock= 15  Conv=0.75D-08     -V/T= 2.0026

 **********************************************************************

            Population analysis using the SCF density.

 **********************************************************************

 Orbital symmetries:
       Occupied  (A) (A) (A) (A) (A) (A) (A) (A) (A) (A) (A) (A)
                 (A) (A) (A) (A) (A) (A) (A) (A) (A) (A) (A) (A)
                 (A) (A) (A) (A) (A) (A) (A) (A) (A) (A) (A) (A)
                 (A) (A) (A) (A) (A) (A) (A) (A) (A) (A) (A) (A)
                 (A) (A) (A) (A) (A) (A) (A) (A) (A) (A) (A) (A)
                 (A) (A) (A) (A) (A) (A) (A) (A) (A) (A) (A) (A)
                 (A) (A) (A) (A) (A) (A) (A) (A) (A) (A) (A) (A)
                 (A) (A) (A) (A) (A) (A) (A) (A) (A) (A) (A) (A)
                 (A) (A) (A) (A) (A) (A) (A) (A) (A) (A) (A) (A)
                 (A) (A) (A) (A) (A) (A) (A) (A) (A) (A) (A) (A)
                 (A) (A) (A) (A)
       Virtual   (A) (A) (A) (A) (A) (A) (A) (A) (A) (A) (A) (A)
                 (A) (A) (A) (A) (A) (A) (A) (A) (A) (A) (A) (A)
                 (A) (A) (A) (A) (A) (A) (A) (A) (A) (A) (A) (A)
                 (A) (A) (A) (A) (A) (A) (A) (A) (A) (A) (A) (A)
                 (A) (A) (A) (A) (A) (A) (A) (A) (A) (A) (A) (A)
                 (A) (A) (A) (A) (A) (A) (A) (A) (A) (A) (A) (A)
                 (A) (A) (A) (A) (A) (A) (A) (A) (A) (A) (A) (A)
                 (A) (A) (A) (A) (A) (A) (A) (A) (A) (A) (A) (A)
                 (A) (A) (A) (A) (A) (A) (A) (A) (A) (A) (A) (A)
                 (A) (A) (A) (A) (A) (A) (A) (A) (A) (A) (A) (A)
                 (A) (A) (A) (A) (A) (A) (A) (A) (A) (A) (A) (A)
                 (A) (A) (A) (A) (A) (A) (A) (A) (A) (A) (A) (A)
                 (A) (A) (A) (A) (A) (A) (A) (A) (A) (A) (A) (A)
                 (A) (A) (A) (A) (A) (A) (A) (A) (A) (A) (A) (A)
                 (A) (A) (A) (A) (A) (A) (A) (A) (A) (A) (A) (A)
                 (A) (A) (A) (A) (A) (A) (A) (A) (A) (A) (A) (A)
                 (A) (A) (A) (A) (A) (A) (A) (A) (A) (A) (A) (A)
                 (A) (A) (A) (A) (A) (A) (A) (A) (A) (A) (A) (A)
                 (A) (A) (A) (A) (A) (A) (A) (A) (A) (A) (A) (A)
                 (A) (A) (A) (A) (A) (A) (A) (A) (A) (A) (A) (A)
                 (A) (A) (A) (A) (A) (A) (A) (A) (A) (A) (A) (A)
                 (A) (A) (A) (A) (A) (A) (A) (A) (A) (A) (A) (A)
                 (A) (A) (A) (A) (A) (A) (A) (A) (A) (A) (A) (A)
                 (A) (A) (A) (A) (A) (A) (A) (A) (A) (A) (A) (A)
                 (A) (A) (A) (A) (A) (A) (A) (A) (A) (A) (A) (A)
                 (A) (A) (A) (A) (A) (A) (A) (A) (A) (A) (A) (A)
                 (A) (A) (A) (A) (A) (A) (A) (A) (A) (A) (A) (A)
                 (A) (A) (A) (A) (A) (A) (A) (A) (A) (A) (A) (A)
                 (A) (A) (A) (A) (A) (A) (A) (A) (A) (A) (A) (A)
                 (A) (A) (A) (A) (A) (A) (A) (A) (A) (A) (A) (A)
                 (A) (A) (A) (A) (A) (A) (A) (A) (A) (A) (A) (A)
                 (A) (A) (A) (A) (A) (A) (A) (A) (A) (A) (A) (A)
                 (A) (A) (A) (A) (A) (A) (A) (A) (A) (A) (A) (A)
                 (A) (A) (A) (A) (A) (A) (A) (A) (A) (A) (A) (A)
                 (A) (A) (A) (A) (A) (A) (A) (A) (A) (A) (A) (A)
                 (A) (A) (A) (A) (A) (A) (A) (A) (A) (A) (A) (A)
                 (A) (A) (A) (A) (A) (A) (A) (A) (A) (A) (A) (A)
                 (A) (A) (A) (A) (A) (A) (A) (A) (A) (A) (A) (A)
                 (A) (A) (A) (A) (A) (A) (A) (A) (A) (A) (A) (A)
                 (A) (A) (A) (A) (A) (A) (A) (A) (A) (A) (A) (A)
                 (A) (A) (A) (A) (A) (A) (A) (A) (A) (A) (A) (A)
                 (A) (A) (A) (A) (A) (A) (A) (A) (A) (A) (A) (A)
                 (A) (A) (A) (A) (A) (A) (A) (A) (A) (A) (A) (A)
                 (A) (A) (A) (A) (A) (A) (A) (A) (A) (A) (A) (A)
                 (A) (A) (A) (A) (A) (A) (A) (A) (A) (A) (A) (A)
                 (A) (A) (A) (A) (A) (A) (A) (A) (A) (A) (A) (A)
                 (A) (A) (A) (A) (A) (A) (A) (A) (A) (A) (A) (A)
                 (A) (A) (A) (A) (A) (A) (A) (A) (A) (A) (A) (A)
                 (A) (A) (A) (A)
 The electronic state is 1-A.
 Alpha  occ. eigenvalues --  -88.88537 -88.88306 -88.87425 -88.87148 -10.22130
 Alpha  occ. eigenvalues --  -10.22055 -10.21606 -10.21546 -10.21064 -10.20992
 Alpha  occ. eigenvalues --  -10.20530 -10.20467 -10.20380 -10.20333 -10.19405
 Alpha  occ. eigenvalues --  -10.19331 -10.19329 -10.19246 -10.19066 -10.19014
 Alpha  occ. eigenvalues --  -10.18792 -10.18774 -10.18635 -10.18572 -10.18344
 Alpha  occ. eigenvalues --  -10.18267 -10.18097 -10.17779 -10.17744 -10.17735
 Alpha  occ. eigenvalues --  -10.17673 -10.17450  -7.97187  -7.96950  -7.96083
 Alpha  occ. eigenvalues --   -7.95805  -5.93515  -5.93281  -5.93156  -5.92919
 Alpha  occ. eigenvalues --   -5.92687  -5.92448  -5.92412  -5.92134  -5.92054
 Alpha  occ. eigenvalues --   -5.91771  -5.91582  -5.91302  -0.92630  -0.91537
 Alpha  occ. eigenvalues --   -0.88558  -0.87470  -0.84473  -0.83415  -0.82402
 Alpha  occ. eigenvalues --   -0.81336  -0.78088  -0.77681  -0.77037  -0.76607
 Alpha  occ. eigenvalues --   -0.74266  -0.73208  -0.72453  -0.71408  -0.70317
 Alpha  occ. eigenvalues --   -0.69261  -0.64927  -0.63890  -0.61838  -0.60801
 Alpha  occ. eigenvalues --   -0.59680  -0.58773  -0.58642  -0.57742  -0.57286
 Alpha  occ. eigenvalues --   -0.56244  -0.51734  -0.50735  -0.50521  -0.49495
 Alpha  occ. eigenvalues --   -0.49397  -0.48377  -0.47802  -0.46929  -0.45952
 Alpha  occ. eigenvalues --   -0.45794  -0.45061  -0.44806  -0.44290  -0.43843
 Alpha  occ. eigenvalues --   -0.43664  -0.43148  -0.42602  -0.42329  -0.41141
 Alpha  occ. eigenvalues --   -0.40786  -0.40116  -0.39862  -0.39438  -0.38411
 Alpha  occ. eigenvalues --   -0.37595  -0.36944  -0.36594  -0.36492  -0.35916
 Alpha  occ. eigenvalues --   -0.35499  -0.35050  -0.34935  -0.34811  -0.34056
 Alpha  occ. eigenvalues --   -0.33863  -0.33720  -0.32801  -0.31858  -0.29159
 Alpha  occ. eigenvalues --   -0.28491  -0.28101  -0.27489  -0.25305  -0.24219
 Alpha  occ. eigenvalues --   -0.23238  -0.22170  -0.21433  -0.20379
 Alpha virt. eigenvalues --   -0.06026  -0.04915  -0.02749  -0.02019  -0.01620
 Alpha virt. eigenvalues --   -0.00906  -0.00779  -0.00005   0.00473   0.01210
 Alpha virt. eigenvalues --    0.01523   0.02643   0.03677   0.03823   0.04261
 Alpha virt. eigenvalues --    0.04749   0.04904   0.05521   0.06457   0.06989
 Alpha virt. eigenvalues --    0.07183   0.07546   0.07853   0.08861   0.09199
 Alpha virt. eigenvalues --    0.10404   0.10982   0.11913   0.12501   0.12631
 Alpha virt. eigenvalues --    0.12724   0.13062   0.13162   0.13404   0.13894
 Alpha virt. eigenvalues --    0.14146   0.14559   0.14959   0.15671   0.16008
 Alpha virt. eigenvalues --    0.16712   0.17247   0.18047   0.18810   0.19934
 Alpha virt. eigenvalues --    0.20908   0.21230   0.21722   0.22858   0.23004
 Alpha virt. eigenvalues --    0.23562   0.24242   0.24394   0.25166   0.26801
 Alpha virt. eigenvalues --    0.27294   0.27376   0.27797   0.28096   0.28218
 Alpha virt. eigenvalues --    0.28546   0.28984   0.29156   0.29374   0.29978
 Alpha virt. eigenvalues --    0.31816   0.32358   0.33666   0.33885   0.34871
 Alpha virt. eigenvalues --    0.35077   0.35302   0.36180   0.36636   0.36904
 Alpha virt. eigenvalues --    0.37940   0.37995   0.38205   0.38597   0.39005
 Alpha virt. eigenvalues --    0.39534   0.39922   0.40209   0.40604   0.40823
 Alpha virt. eigenvalues --    0.41091   0.41251   0.41585   0.41805   0.42104
 Alpha virt. eigenvalues --    0.42303   0.42824   0.43123   0.43299   0.43593
 Alpha virt. eigenvalues --    0.43749   0.44102   0.44316   0.44618   0.45038
 Alpha virt. eigenvalues --    0.45706   0.45991   0.46216   0.46317   0.46481
 Alpha virt. eigenvalues --    0.47255   0.48395   0.48678   0.48824   0.49309
 Alpha virt. eigenvalues --    0.49542   0.50614   0.50760   0.50969   0.51496
 Alpha virt. eigenvalues --    0.52363   0.52869   0.53728   0.53841   0.54192
 Alpha virt. eigenvalues --    0.55262   0.55495   0.56035   0.56706   0.57124
 Alpha virt. eigenvalues --    0.57901   0.58080   0.58145   0.58726   0.58969
 Alpha virt. eigenvalues --    0.59029   0.59467   0.59794   0.59850   0.60066
 Alpha virt. eigenvalues --    0.60813   0.60846   0.61272   0.61383   0.61830
 Alpha virt. eigenvalues --    0.62452   0.62614   0.63114   0.63522   0.64142
 Alpha virt. eigenvalues --    0.64572   0.65473   0.66335   0.67138   0.67559
 Alpha virt. eigenvalues --    0.68448   0.69394   0.69647   0.70101   0.70693
 Alpha virt. eigenvalues --    0.71113   0.71537   0.71780   0.72194   0.72405
 Alpha virt. eigenvalues --    0.72954   0.73287   0.73474   0.74292   0.74808
 Alpha virt. eigenvalues --    0.75180   0.75481   0.76018   0.76422   0.77261
 Alpha virt. eigenvalues --    0.77585   0.77743   0.78219   0.78700   0.79239
 Alpha virt. eigenvalues --    0.79844   0.79961   0.80779   0.80930   0.81395
 Alpha virt. eigenvalues --    0.82138   0.82239   0.83014   0.83758   0.84033
 Alpha virt. eigenvalues --    0.84462   0.84805   0.85926   0.86171   0.86972
 Alpha virt. eigenvalues --    0.87158   0.87368   0.87916   0.88707   0.89139
 Alpha virt. eigenvalues --    0.89779   0.90214   0.90754   0.91113   0.91785
 Alpha virt. eigenvalues --    0.92646   0.93486   0.93544   0.94343   0.94720
 Alpha virt. eigenvalues --    0.95797   0.96506   0.97285   0.97365   0.98346
 Alpha virt. eigenvalues --    0.98726   0.99140   0.99484   0.99674   1.00265
 Alpha virt. eigenvalues --    1.00647   1.00925   1.01810   1.02632   1.03242
 Alpha virt. eigenvalues --    1.04152   1.04517   1.05974   1.06883   1.07105
 Alpha virt. eigenvalues --    1.07595   1.08076   1.08486   1.09315   1.09551
 Alpha virt. eigenvalues --    1.09849   1.10156   1.10815   1.11021   1.11262
 Alpha virt. eigenvalues --    1.11657   1.11921   1.13609   1.15840   1.17366
 Alpha virt. eigenvalues --    1.18782   1.19919   1.20864   1.21533   1.21992
 Alpha virt. eigenvalues --    1.22906   1.23644   1.24773   1.25045   1.26359
 Alpha virt. eigenvalues --    1.28140   1.28600   1.29331   1.29545   1.30721
 Alpha virt. eigenvalues --    1.32213   1.34780   1.36005   1.38641   1.40326
 Alpha virt. eigenvalues --    1.41058   1.41501   1.41581   1.42954   1.43388
 Alpha virt. eigenvalues --    1.43843   1.44281   1.44829   1.45779   1.46637
 Alpha virt. eigenvalues --    1.47495   1.48381   1.48768   1.49139   1.49610
 Alpha virt. eigenvalues --    1.51007   1.52724   1.53387   1.53572   1.54162
 Alpha virt. eigenvalues --    1.54765   1.55770   1.56030   1.56676   1.57044
 Alpha virt. eigenvalues --    1.58390   1.58578   1.59267   1.59643   1.59847
 Alpha virt. eigenvalues --    1.60887   1.61016   1.61222   1.61396   1.61809
 Alpha virt. eigenvalues --    1.62449   1.62549   1.62987   1.63640   1.64170
 Alpha virt. eigenvalues --    1.65032   1.66413   1.67953   1.68554   1.69604
 Alpha virt. eigenvalues --    1.70351   1.70560   1.72099   1.72369   1.73164
 Alpha virt. eigenvalues --    1.73619   1.73669   1.74037   1.74541   1.75781
 Alpha virt. eigenvalues --    1.75867   1.76492   1.77133   1.80343   1.80639
 Alpha virt. eigenvalues --    1.81201   1.81556   1.82159   1.82549   1.82847
 Alpha virt. eigenvalues --    1.83097   1.83435   1.84257   1.84437   1.85434
 Alpha virt. eigenvalues --    1.86152   1.86494   1.87177   1.88290   1.88902
 Alpha virt. eigenvalues --    1.89399   1.89515   1.90001   1.90241   1.90409
 Alpha virt. eigenvalues --    1.90488   1.91168   1.91418   1.92110   1.92705
 Alpha virt. eigenvalues --    1.92883   1.93706   1.94374   1.94446   1.95116
 Alpha virt. eigenvalues --    1.95536   1.96031   1.96248   1.97350   1.97970
 Alpha virt. eigenvalues --    1.98267   1.99297   1.99941   2.00423   2.00726
 Alpha virt. eigenvalues --    2.01398   2.02162   2.02307   2.03176   2.03465
 Alpha virt. eigenvalues --    2.05059   2.05134   2.05980   2.07305   2.08096
 Alpha virt. eigenvalues --    2.08224   2.09631   2.10956   2.12294   2.13163
 Alpha virt. eigenvalues --    2.13693   2.14758   2.16928   2.23041   2.23529
 Alpha virt. eigenvalues --    2.26047   2.26340   2.26521   2.26919   2.27216
 Alpha virt. eigenvalues --    2.28107   2.29149   2.30523   2.32553   2.32905
 Alpha virt. eigenvalues --    2.33175   2.33428   2.33647   2.33733   2.33896
 Alpha virt. eigenvalues --    2.34565   2.35007   2.36125   2.37288   2.37572
 Alpha virt. eigenvalues --    2.38647   2.40140   2.41742   2.42263   2.47910
 Alpha virt. eigenvalues --    2.49237   2.52240   2.52760   2.53978   2.55960
 Alpha virt. eigenvalues --    2.56332   2.56638   2.57318   2.58037   2.58419
 Alpha virt. eigenvalues --    2.58628   2.60142   2.60432   2.60851   2.61319
 Alpha virt. eigenvalues --    2.61924   2.62435   2.63137   2.63559   2.64032
 Alpha virt. eigenvalues --    2.64852   2.65198   2.65755   2.65985   2.66056
 Alpha virt. eigenvalues --    2.66273   2.67279   2.67665   2.68904   2.68969
 Alpha virt. eigenvalues --    2.69559   2.69668   2.69967   2.71858   2.73073
 Alpha virt. eigenvalues --    2.73429   2.73680   2.74327   2.74968   2.76133
 Alpha virt. eigenvalues --    2.77649   2.79169   2.79871   2.80055   2.81086
 Alpha virt. eigenvalues --    2.81488   2.81855   2.82158   2.83049   2.83630
 Alpha virt. eigenvalues --    2.84615   2.84806   2.85918   2.86053   2.86843
 Alpha virt. eigenvalues --    2.88139   2.89971   2.91791   2.92659   2.94265
 Alpha virt. eigenvalues --    2.94699   2.97665   2.99542   3.04170   3.05080
 Alpha virt. eigenvalues --    3.05799   3.06857   3.08261   3.08942   3.11977
 Alpha virt. eigenvalues --    3.12240   3.16046   3.16777   3.17968   3.18545
 Alpha virt. eigenvalues --    3.23935   3.24261   3.25122   3.25781   3.30455
 Alpha virt. eigenvalues --    3.30555   3.31035   3.31584   3.32703   3.33283
 Alpha virt. eigenvalues --    3.35011   3.36209   3.38861   3.40110   3.43723
 Alpha virt. eigenvalues --    3.44387   3.45900   3.46814   3.46984   3.47847
 Alpha virt. eigenvalues --    3.51837   3.51881   3.55448   3.56367   3.56780
 Alpha virt. eigenvalues --    3.57073   3.63221   3.64570   3.77677   3.77890
 Alpha virt. eigenvalues --    3.83578   3.84240   3.98725   3.99783   4.00251
 Alpha virt. eigenvalues --    4.01229   4.01573   4.02770   4.04184   4.05236
 Alpha virt. eigenvalues --    4.11440   4.11693   4.13107   4.14813   4.20792
 Alpha virt. eigenvalues --    4.22099   4.54765   4.56309   4.79436   4.79553
 Alpha virt. eigenvalues --    4.80587   4.81113   7.81800   7.83434   7.87893
 Alpha virt. eigenvalues --    7.89699  17.20633  17.21198  17.22917  17.24112
 Alpha virt. eigenvalues --   17.44465  17.46170  17.51568  17.52657  17.52986
 Alpha virt. eigenvalues --   17.54175  17.54693  17.58047  23.37010  23.38173
 Alpha virt. eigenvalues --   23.55238  23.55670  23.69728  23.70698  23.85591
 Alpha virt. eigenvalues --   23.86267  23.86879  23.87126  23.90864  23.91001
 Alpha virt. eigenvalues --   23.92523  23.92936  23.98031  23.99129  24.00904
 Alpha virt. eigenvalues --   24.01929  24.03531  24.04546  24.06978  24.07100
 Alpha virt. eigenvalues --   24.08041  24.08297  24.14388  24.14485  24.15507
 Alpha virt. eigenvalues --   24.15834 188.92956 188.94939 189.00437 189.02728
          Condensed to atoms (all electrons):
               1          2          3          4          5          6
     1  S   15.383838   0.009188  -0.063018   0.006189  -0.000257   0.010018
     2  S    0.009188  15.389277  -0.000096  -0.000081   0.000346   0.001153
     3  C   -0.063018  -0.000096   4.880108   0.501809  -0.031256  -0.063252
     4  C    0.006189  -0.000081   0.501809   4.898309   0.476332  -0.039612
     5  C   -0.000257   0.000346  -0.031256   0.476332   4.915662   0.491429
     6  C    0.010018   0.001153  -0.063252  -0.039612   0.491429   4.899063
     7  C    0.002612   0.009780  -0.000000   0.000000  -0.000000  -0.000002
     8  C    0.000310  -0.000357   0.000000  -0.000000   0.000000  -0.000000
     9  C   -0.000029   0.006173  -0.000000   0.000000  -0.000000  -0.000000
    10  C   -0.000207  -0.063311   0.000000  -0.000000   0.000000  -0.000001
    11  C    0.009161   0.285687   0.000034  -0.000002   0.000004  -0.000253
    12  C   -0.070754  -0.093404  -0.000514   0.000027  -0.000018   0.000058
    13  C    0.315565  -0.096337  -0.000584   0.000008  -0.000690   0.012203
    14  C   -0.093381   0.295928   0.018851  -0.001698   0.015935  -0.091852
    15  C   -0.087464  -0.071927   0.016795  -0.059790  -0.008029   0.470184
    16  C    0.305445   0.007875   0.433255  -0.041774  -0.063011  -0.035648
    17  H   -0.003362   0.000025   0.419699  -0.037849   0.007586  -0.000680
    18  H    0.000110   0.000004   0.007731  -0.046263   0.409436  -0.039105
    19  H   -0.000654   0.004842  -0.001847   0.009330  -0.048243   0.410935
    20  H    0.003308  -0.000687  -0.000003   0.000000  -0.000000   0.000000
    21  H   -0.000003   0.000124   0.000000  -0.000000  -0.000000   0.000000
    22  H   -0.000003  -0.000368  -0.000000   0.000000   0.000000   0.000000
    23  H    0.000018  -0.003496   0.000000  -0.000000   0.000000  -0.000000
    24  H   -0.000373  -0.000003  -0.042580   0.414633  -0.043972   0.008047
    25  S    0.000006  -0.004441  -0.000009   0.000035   0.000467  -0.005779
    26  S   -0.000050  -0.009352  -0.000000  -0.000001  -0.000008  -0.000056
    27  C    0.000000  -0.000034   0.000004  -0.000084  -0.003391  -0.002090
    28  C   -0.000000   0.000032   0.000011  -0.000426  -0.004594   0.001663
    29  C   -0.000000   0.000022   0.000004  -0.000102   0.000101   0.000009
    30  C    0.000007  -0.000014  -0.000009  -0.000016   0.000296   0.002075
    31  C    0.000000   0.000046   0.000000  -0.000000  -0.000000  -0.000000
    32  C    0.000000  -0.000261  -0.000000   0.000000  -0.000000  -0.000000
    33  C   -0.000000  -0.000413   0.000000  -0.000000   0.000000   0.000000
    34  C   -0.000000  -0.001709  -0.000000   0.000000  -0.000000  -0.000000
    35  C   -0.000000  -0.007948  -0.000000   0.000000  -0.000000  -0.000009
    36  C    0.000000   0.002862   0.000000  -0.000000  -0.000000   0.000032
    37  C   -0.000001  -0.011963   0.000000  -0.000001   0.000029   0.001177
    38  C   -0.000008  -0.003775   0.000001  -0.000001   0.000038  -0.000202
    39  C    0.000005  -0.000485  -0.000004   0.000047  -0.000011  -0.003162
    40  C    0.000006  -0.002334  -0.000015   0.000113   0.000620  -0.010678
    41  H   -0.000000   0.000003   0.000000   0.000002   0.000119  -0.000101
    42  H    0.000000   0.000000  -0.000000   0.000032   0.000110   0.000016
    43  H    0.000003   0.000022  -0.000001  -0.000005   0.000028   0.000127
    44  H   -0.000000   0.000142   0.000000  -0.000000  -0.000000   0.000000
    45  H    0.000000   0.000001  -0.000000   0.000000   0.000000  -0.000000
    46  H    0.000000   0.000014  -0.000000   0.000000  -0.000000  -0.000000
    47  H   -0.000000  -0.000037  -0.000000   0.000000  -0.000000  -0.000000
    48  H    0.000000   0.000001  -0.000001   0.000012   0.000059   0.000046
               7          8          9         10         11         12
     1  S    0.002612   0.000310  -0.000029  -0.000207   0.009161  -0.070754
     2  S    0.009780  -0.000357   0.006173  -0.063311   0.285687  -0.093404
     3  C   -0.000000   0.000000  -0.000000   0.000000   0.000034  -0.000514
     4  C    0.000000  -0.000000   0.000000  -0.000000  -0.000002   0.000027
     5  C   -0.000000   0.000000  -0.000000   0.000000   0.000004  -0.000018
     6  C   -0.000002  -0.000000  -0.000000  -0.000001  -0.000253   0.000058
     7  C    4.887264   0.508307  -0.048926  -0.056556  -0.044276   0.478994
     8  C    0.508307   4.884350   0.488858  -0.038363  -0.055944  -0.027633
     9  C   -0.048926   0.488858   4.895328   0.506859  -0.045621  -0.052960
    10  C   -0.056556  -0.038363   0.506859   4.870901   0.444013   0.009666
    11  C   -0.044276  -0.055944  -0.045621   0.444013   5.423802   0.413226
    12  C    0.478994  -0.027633  -0.052960   0.009666   0.413226   4.956804
    13  C   -0.090939   0.013554  -0.001252   0.018042  -0.098238   0.392984
    14  C    0.011271  -0.000611  -0.000014  -0.000587  -0.077079  -0.013147
    15  C   -0.000008  -0.000016   0.000025  -0.000516   0.003895   0.021228
    16  C   -0.000293   0.000002  -0.000002   0.000033  -0.000097   0.003607
    17  H   -0.000000   0.000000  -0.000000   0.000000   0.000001  -0.000008
    18  H    0.000000  -0.000000   0.000000  -0.000000  -0.000000  -0.000000
    19  H   -0.000001  -0.000000  -0.000000  -0.000004  -0.000245   0.000026
    20  H    0.419194  -0.040240   0.007630  -0.000957   0.009066  -0.045103
    21  H   -0.038589   0.411362  -0.042600   0.007115   0.000240   0.007642
    22  H    0.007770  -0.043640   0.414348  -0.041930   0.009042  -0.000353
    23  H   -0.000717   0.007240  -0.039000   0.415199  -0.043134   0.007376
    24  H    0.000000   0.000000   0.000000  -0.000000  -0.000000  -0.000000
    25  S   -0.000001   0.000000  -0.000001  -0.000013   0.000072  -0.000035
    26  S   -0.000015  -0.000009   0.000017   0.000091  -0.000167   0.000008
    27  C    0.000000  -0.000000   0.000000  -0.000000   0.000000   0.000000
    28  C    0.000000  -0.000000  -0.000000  -0.000000  -0.000000   0.000000
    29  C   -0.000000   0.000000  -0.000000  -0.000000   0.000000  -0.000000
    30  C   -0.000000   0.000000   0.000000   0.000000  -0.000000  -0.000000
    31  C    0.000000  -0.000000   0.000014   0.000149  -0.000152  -0.000001
    32  C    0.000000  -0.000000   0.000001  -0.000675   0.000077   0.000002
    33  C   -0.000000   0.000000  -0.000089  -0.000832   0.000126   0.000005
    34  C   -0.000001  -0.000002  -0.000074   0.000399   0.000380   0.000015
    35  C    0.000000   0.000000   0.000006   0.000438  -0.000084  -0.000019
    36  C    0.000001  -0.000000   0.000012   0.000351  -0.000387   0.000003
    37  C    0.000000   0.000000  -0.000001  -0.000054   0.000505  -0.000005
    38  C    0.000000   0.000000  -0.000000  -0.000015   0.000086   0.000002
    39  C    0.000000  -0.000000   0.000000   0.000000  -0.000026   0.000003
    40  C    0.000000   0.000000   0.000000  -0.000000   0.000001  -0.000000
    41  H   -0.000000   0.000000  -0.000000  -0.000000   0.000000  -0.000000
    42  H   -0.000000   0.000000  -0.000000  -0.000000   0.000000  -0.000000
    43  H    0.000000  -0.000000  -0.000000   0.000000   0.000000   0.000000
    44  H    0.000000   0.000000   0.000000   0.000009  -0.000009  -0.000000
    45  H    0.000000   0.000000  -0.000000   0.000008  -0.000000   0.000000
    46  H   -0.000000   0.000000   0.000009   0.000047  -0.000003  -0.000000
    47  H   -0.000000  -0.000001   0.000021   0.000106   0.000006  -0.000001
    48  H    0.000000  -0.000000   0.000000   0.000000  -0.000000   0.000000
              13         14         15         16         17         18
     1  S    0.315565  -0.093381  -0.087464   0.305445  -0.003362   0.000110
     2  S   -0.096337   0.295928  -0.071927   0.007875   0.000025   0.000004
     3  C   -0.000584   0.018851   0.016795   0.433255   0.419699   0.007731
     4  C    0.000008  -0.001698  -0.059790  -0.041774  -0.037849  -0.046263
     5  C   -0.000690   0.015935  -0.008029  -0.063011   0.007586   0.409436
     6  C    0.012203  -0.091852   0.470184  -0.035648  -0.000680  -0.039105
     7  C   -0.090939   0.011271  -0.000008  -0.000293  -0.000000   0.000000
     8  C    0.013554  -0.000611  -0.000016   0.000002   0.000000  -0.000000
     9  C   -0.001252  -0.000014   0.000025  -0.000002  -0.000000   0.000000
    10  C    0.018042  -0.000587  -0.000516   0.000033   0.000000  -0.000000
    11  C   -0.098238  -0.077079   0.003895  -0.000097   0.000001  -0.000000
    12  C    0.392984  -0.013147   0.021228   0.003607  -0.000008  -0.000000
    13  C    5.472538   0.362130  -0.007836  -0.087782  -0.000118   0.000018
    14  C    0.362130   5.491739   0.393918  -0.104064  -0.000330  -0.000412
    15  C   -0.007836   0.393918   4.982318   0.399857   0.007352   0.008903
    16  C   -0.087782  -0.104064   0.399857   5.402542  -0.047954  -0.000167
    17  H   -0.000118  -0.000330   0.007352  -0.047954   0.569544  -0.000318
    18  H    0.000018  -0.000412   0.008903  -0.000167  -0.000318   0.579589
    19  H    0.000289  -0.017206  -0.053733   0.010763   0.000062  -0.009937
    20  H   -0.012284   0.000098   0.000020  -0.000110   0.000000   0.000000
    21  H   -0.000468   0.000015  -0.000000  -0.000000  -0.000000   0.000000
    22  H   -0.000004   0.000010  -0.000000  -0.000000   0.000000   0.000000
    23  H   -0.000261  -0.000169  -0.000009   0.000001   0.000000  -0.000000
    24  H    0.000010  -0.000005  -0.000494   0.009162  -0.007950  -0.007980
    25  S    0.000067   0.000147  -0.000830  -0.000022  -0.000000  -0.000305
    26  S    0.000237  -0.000106   0.000219  -0.000030   0.000000  -0.000001
    27  C   -0.000000  -0.000005   0.000192  -0.000003   0.000000   0.004969
    28  C   -0.000000   0.000001   0.000246  -0.000017   0.000001   0.006000
    29  C   -0.000000  -0.000006  -0.000077  -0.000004   0.000000  -0.000065
    30  C   -0.000002  -0.000025   0.000075   0.000002  -0.000000  -0.000350
    31  C   -0.000002   0.000029   0.000000   0.000000   0.000000  -0.000000
    32  C   -0.000000   0.000004   0.000000   0.000000  -0.000000  -0.000000
    33  C    0.000000  -0.000004  -0.000000   0.000000   0.000000   0.000000
    34  C    0.000001  -0.000001   0.000001  -0.000000  -0.000000  -0.000000
    35  C   -0.000000   0.000036   0.000009  -0.000000  -0.000000  -0.000000
    36  C   -0.000011   0.000140  -0.000024  -0.000000   0.000000   0.000000
    37  C   -0.000000   0.000291  -0.000133  -0.000005   0.000000   0.000027
    38  C   -0.000021   0.000406  -0.000154   0.000002   0.000000   0.000007
    39  C    0.000000  -0.000035   0.000026   0.000012  -0.000000  -0.000323
    40  C   -0.000002   0.000037  -0.000291   0.000028  -0.000000  -0.000745
    41  H    0.000000  -0.000001  -0.000006   0.000000  -0.000000   0.000297
    42  H    0.000000  -0.000000  -0.000008  -0.000001  -0.000000  -0.000031
    43  H   -0.000001  -0.000013   0.000027  -0.000000   0.000000   0.000003
    44  H    0.000000  -0.000005  -0.000000  -0.000000   0.000000  -0.000000
    45  H   -0.000000   0.000000   0.000000   0.000000  -0.000000  -0.000000
    46  H   -0.000000   0.000000   0.000000  -0.000000   0.000000   0.000000
    47  H    0.000000   0.000001   0.000000  -0.000000  -0.000000  -0.000000
    48  H   -0.000000  -0.000000   0.000002  -0.000001  -0.000000   0.000219
              19         20         21         22         23         24
     1  S   -0.000654   0.003308  -0.000003  -0.000003   0.000018  -0.000373
     2  S    0.004842  -0.000687   0.000124  -0.000368  -0.003496  -0.000003
     3  C   -0.001847  -0.000003   0.000000  -0.000000   0.000000  -0.042580
     4  C    0.009330   0.000000  -0.000000   0.000000  -0.000000   0.414633
     5  C   -0.048243  -0.000000  -0.000000   0.000000   0.000000  -0.043972
     6  C    0.410935   0.000000   0.000000   0.000000  -0.000000   0.008047
     7  C   -0.000001   0.419194  -0.038589   0.007770  -0.000717   0.000000
     8  C   -0.000000  -0.040240   0.411362  -0.043640   0.007240   0.000000
     9  C   -0.000000   0.007630  -0.042600   0.414348  -0.039000   0.000000
    10  C   -0.000004  -0.000957   0.007115  -0.041930   0.415199  -0.000000
    11  C   -0.000245   0.009066   0.000240   0.009042  -0.043134  -0.000000
    12  C    0.000026  -0.045103   0.007642  -0.000353   0.007376  -0.000000
    13  C    0.000289  -0.012284  -0.000468  -0.000004  -0.000261   0.000010
    14  C   -0.017206   0.000098   0.000015   0.000010  -0.000169  -0.000005
    15  C   -0.053733   0.000020  -0.000000  -0.000000  -0.000009  -0.000494
    16  C    0.010763  -0.000110  -0.000000  -0.000000   0.000001   0.009162
    17  H    0.000062   0.000000  -0.000000   0.000000   0.000000  -0.007950
    18  H   -0.009937   0.000000   0.000000   0.000000  -0.000000  -0.007980
    19  H    0.591339   0.000000   0.000000   0.000000   0.000001  -0.000282
    20  H    0.000000   0.574658  -0.007755  -0.000315   0.000060   0.000000
    21  H    0.000000  -0.007755   0.576221  -0.007654  -0.000307   0.000000
    22  H    0.000000  -0.000315  -0.007654   0.576690  -0.007585  -0.000000
    23  H    0.000001   0.000060  -0.000307  -0.007585   0.551790   0.000000
    24  H   -0.000282   0.000000   0.000000  -0.000000   0.000000   0.577913
    25  S    0.003515  -0.000000   0.000000  -0.000000   0.000004   0.000003
    26  S   -0.000045   0.000001  -0.000000  -0.000000   0.000001   0.000000
    27  C   -0.001023  -0.000000  -0.000000   0.000000  -0.000000  -0.000012
    28  C   -0.002401   0.000000  -0.000000   0.000000   0.000000  -0.000033
    29  C   -0.000506  -0.000000   0.000000  -0.000000   0.000000   0.000012
    30  C   -0.001758   0.000000   0.000000  -0.000000  -0.000000   0.000005
    31  C   -0.000007   0.000000  -0.000000  -0.000000   0.000054  -0.000000
    32  C    0.000000  -0.000000   0.000000   0.000002   0.002281  -0.000000
    33  C   -0.000000  -0.000000   0.000000   0.000019   0.003003  -0.000000
    34  C    0.000002  -0.000000   0.000000   0.000016   0.000359   0.000000
    35  C    0.000008  -0.000000   0.000000   0.000001  -0.001140   0.000000
    36  C   -0.000160  -0.000000  -0.000000   0.000000  -0.000589  -0.000000
    37  C   -0.004193  -0.000000   0.000000   0.000000   0.000020  -0.000000
    38  C   -0.000010  -0.000000   0.000000  -0.000000   0.000014  -0.000000
    39  C   -0.000403   0.000000  -0.000000   0.000000  -0.000001   0.000002
    40  C    0.001643  -0.000000  -0.000000  -0.000000  -0.000000   0.000002
    41  H    0.000105  -0.000000   0.000000   0.000000  -0.000000  -0.000001
    42  H    0.000022  -0.000000   0.000000  -0.000000   0.000000   0.000002
    43  H    0.000002   0.000000  -0.000000   0.000000  -0.000000  -0.000000
    44  H    0.000002   0.000000  -0.000000  -0.000000   0.000014   0.000000
    45  H   -0.000000   0.000000  -0.000000  -0.000000   0.000059   0.000000
    46  H    0.000000   0.000000  -0.000000   0.000003   0.000078   0.000000
    47  H    0.000000   0.000000  -0.000000   0.000001   0.000032   0.000000
    48  H    0.000024   0.000000   0.000000  -0.000000  -0.000000   0.000004
              25         26         27         28         29         30
     1  S    0.000006  -0.000050   0.000000  -0.000000  -0.000000   0.000007
     2  S   -0.004441  -0.009352  -0.000034   0.000032   0.000022  -0.000014
     3  C   -0.000009  -0.000000   0.000004   0.000011   0.000004  -0.000009
     4  C    0.000035  -0.000001  -0.000084  -0.000426  -0.000102  -0.000016
     5  C    0.000467  -0.000008  -0.003391  -0.004594   0.000101   0.000296
     6  C   -0.005779  -0.000056  -0.002090   0.001663   0.000009   0.002075
     7  C   -0.000001  -0.000015   0.000000   0.000000  -0.000000  -0.000000
     8  C    0.000000  -0.000009  -0.000000  -0.000000   0.000000   0.000000
     9  C   -0.000001   0.000017   0.000000  -0.000000  -0.000000   0.000000
    10  C   -0.000013   0.000091  -0.000000  -0.000000  -0.000000   0.000000
    11  C    0.000072  -0.000167   0.000000  -0.000000   0.000000  -0.000000
    12  C   -0.000035   0.000008   0.000000   0.000000  -0.000000  -0.000000
    13  C    0.000067   0.000237  -0.000000  -0.000000  -0.000000  -0.000002
    14  C    0.000147  -0.000106  -0.000005   0.000001  -0.000006  -0.000025
    15  C   -0.000830   0.000219   0.000192   0.000246  -0.000077   0.000075
    16  C   -0.000022  -0.000030  -0.000003  -0.000017  -0.000004   0.000002
    17  H   -0.000000   0.000000   0.000000   0.000001   0.000000  -0.000000
    18  H   -0.000305  -0.000001   0.004969   0.006000  -0.000065  -0.000350
    19  H    0.003515  -0.000045  -0.001023  -0.002401  -0.000506  -0.001758
    20  H   -0.000000   0.000001  -0.000000   0.000000  -0.000000   0.000000
    21  H    0.000000  -0.000000  -0.000000  -0.000000   0.000000   0.000000
    22  H   -0.000000  -0.000000   0.000000   0.000000  -0.000000  -0.000000
    23  H    0.000004   0.000001  -0.000000   0.000000   0.000000  -0.000000
    24  H    0.000003   0.000000  -0.000012  -0.000033   0.000012   0.000005
    25  S   15.393264   0.011970  -0.059674   0.005652   0.000127   0.009492
    26  S    0.011970  15.367002  -0.000237  -0.000021   0.000309   0.002679
    27  C   -0.059674  -0.000237   4.872850   0.510099  -0.040264  -0.050299
    28  C    0.005652  -0.000021   0.510099   4.888080   0.489451  -0.050908
    29  C    0.000127   0.000309  -0.040264   0.489451   4.869118   0.511419
    30  C    0.009492   0.002679  -0.050299  -0.050908   0.511419   4.863101
    31  C    0.002885   0.010668  -0.000001   0.000000  -0.000000  -0.000001
    32  C    0.000256  -0.000431   0.000000  -0.000000   0.000000  -0.000000
    33  C    0.000004   0.006375  -0.000000   0.000000  -0.000000   0.000000
    34  C   -0.000273  -0.063500   0.000000  -0.000000   0.000000  -0.000001
    35  C    0.009648   0.318805   0.000033  -0.000002   0.000002  -0.000310
    36  C   -0.073448  -0.087051  -0.000525   0.000028  -0.000020   0.000087
    37  C    0.318425  -0.093555   0.000046  -0.000038  -0.000678   0.011274
    38  C   -0.087130   0.326968   0.015976  -0.001108   0.013453  -0.088855
    39  C   -0.099308  -0.071033  -0.000313  -0.049790  -0.029180   0.487084
    40  C    0.326120   0.009359   0.437945  -0.051437  -0.056548  -0.041518
    41  H   -0.003010   0.000022   0.422427  -0.038147   0.007500  -0.000697
    42  H    0.000108  -0.000001   0.006943  -0.041750   0.411092  -0.037141
    43  H   -0.000632   0.003001  -0.000914   0.007679  -0.039328   0.420547
    44  H    0.003262  -0.000576  -0.000003   0.000000  -0.000000   0.000000
    45  H   -0.000006   0.000099   0.000000  -0.000000  -0.000000   0.000000
    46  H   -0.000003  -0.000371  -0.000000   0.000000   0.000000   0.000000
    47  H    0.000021  -0.003361   0.000000  -0.000000   0.000000  -0.000000
    48  H   -0.000414  -0.000003  -0.042674   0.414646  -0.041753   0.007486
              31         32         33         34         35         36
     1  S    0.000000   0.000000  -0.000000  -0.000000  -0.000000   0.000000
     2  S    0.000046  -0.000261  -0.000413  -0.001709  -0.007948   0.002862
     3  C    0.000000  -0.000000   0.000000  -0.000000  -0.000000   0.000000
     4  C   -0.000000   0.000000  -0.000000   0.000000   0.000000  -0.000000
     5  C   -0.000000  -0.000000   0.000000  -0.000000  -0.000000  -0.000000
     6  C   -0.000000  -0.000000   0.000000  -0.000000  -0.000009   0.000032
     7  C    0.000000   0.000000  -0.000000  -0.000001   0.000000   0.000001
     8  C   -0.000000  -0.000000   0.000000  -0.000002   0.000000  -0.000000
     9  C    0.000014   0.000001  -0.000089  -0.000074   0.000006   0.000012
    10  C    0.000149  -0.000675  -0.000832   0.000399   0.000438   0.000351
    11  C   -0.000152   0.000077   0.000126   0.000380  -0.000084  -0.000387
    12  C   -0.000001   0.000002   0.000005   0.000015  -0.000019   0.000003
    13  C   -0.000002  -0.000000   0.000000   0.000001  -0.000000  -0.000011
    14  C    0.000029   0.000004  -0.000004  -0.000001   0.000036   0.000140
    15  C    0.000000   0.000000  -0.000000   0.000001   0.000009  -0.000024
    16  C    0.000000   0.000000   0.000000  -0.000000  -0.000000  -0.000000
    17  H    0.000000  -0.000000   0.000000  -0.000000  -0.000000   0.000000
    18  H   -0.000000  -0.000000   0.000000  -0.000000  -0.000000   0.000000
    19  H   -0.000007   0.000000  -0.000000   0.000002   0.000008  -0.000160
    20  H    0.000000  -0.000000  -0.000000  -0.000000  -0.000000  -0.000000
    21  H   -0.000000   0.000000   0.000000   0.000000   0.000000  -0.000000
    22  H   -0.000000   0.000002   0.000019   0.000016   0.000001   0.000000
    23  H    0.000054   0.002281   0.003003   0.000359  -0.001140  -0.000589
    24  H   -0.000000  -0.000000  -0.000000   0.000000   0.000000  -0.000000
    25  S    0.002885   0.000256   0.000004  -0.000273   0.009648  -0.073448
    26  S    0.010668  -0.000431   0.006375  -0.063500   0.318805  -0.087051
    27  C   -0.000001   0.000000  -0.000000   0.000000   0.000033  -0.000525
    28  C    0.000000  -0.000000   0.000000  -0.000000  -0.000002   0.000028
    29  C   -0.000000   0.000000  -0.000000   0.000000   0.000002  -0.000020
    30  C   -0.000001  -0.000000   0.000000  -0.000001  -0.000310   0.000087
    31  C    4.887817   0.504437  -0.049857  -0.055425  -0.039493   0.482743
    32  C    0.504437   4.894510   0.485770  -0.039479  -0.056550  -0.029787
    33  C   -0.049857   0.485770   4.894592   0.506099  -0.045524  -0.052804
    34  C   -0.055425  -0.039479   0.506099   4.869121   0.437706   0.008869
    35  C   -0.039493  -0.056550  -0.045524   0.437706   5.380366   0.407204
    36  C    0.482743  -0.029787  -0.052804   0.008869   0.407204   4.984331
    37  C   -0.092896   0.013373  -0.001185   0.017497  -0.096416   0.377267
    38  C    0.011518  -0.000618  -0.000052  -0.000415  -0.091157  -0.012189
    39  C    0.000094  -0.000016   0.000026  -0.000494   0.003243   0.021209
    40  C   -0.000288   0.000002  -0.000002   0.000033   0.000001   0.002230
    41  H   -0.000000   0.000000  -0.000000   0.000000   0.000001  -0.000010
    42  H    0.000000  -0.000000  -0.000000   0.000000  -0.000000  -0.000000
    43  H    0.000000  -0.000000   0.000000  -0.000003  -0.000092   0.000013
    44  H    0.421282  -0.040128   0.007599  -0.000980   0.009162  -0.044439
    45  H   -0.038008   0.412420  -0.041931   0.007012   0.000211   0.007566
    46  H    0.007604  -0.043176   0.415016  -0.041057   0.008839  -0.000371
    47  H   -0.000638   0.007390  -0.037366   0.420316  -0.046461   0.007310
    48  H    0.000000   0.000000   0.000000  -0.000000  -0.000000  -0.000000
              37         38         39         40         41         42
     1  S   -0.000001  -0.000008   0.000005   0.000006  -0.000000   0.000000
     2  S   -0.011963  -0.003775  -0.000485  -0.002334   0.000003   0.000000
     3  C    0.000000   0.000001  -0.000004  -0.000015   0.000000  -0.000000
     4  C   -0.000001  -0.000001   0.000047   0.000113   0.000002   0.000032
     5  C    0.000029   0.000038  -0.000011   0.000620   0.000119   0.000110
     6  C    0.001177  -0.000202  -0.003162  -0.010678  -0.000101   0.000016
     7  C    0.000000   0.000000   0.000000   0.000000  -0.000000  -0.000000
     8  C    0.000000   0.000000  -0.000000   0.000000   0.000000   0.000000
     9  C   -0.000001  -0.000000   0.000000   0.000000  -0.000000  -0.000000
    10  C   -0.000054  -0.000015   0.000000  -0.000000  -0.000000  -0.000000
    11  C    0.000505   0.000086  -0.000026   0.000001   0.000000   0.000000
    12  C   -0.000005   0.000002   0.000003  -0.000000  -0.000000  -0.000000
    13  C   -0.000000  -0.000021   0.000000  -0.000002   0.000000   0.000000
    14  C    0.000291   0.000406  -0.000035   0.000037  -0.000001  -0.000000
    15  C   -0.000133  -0.000154   0.000026  -0.000291  -0.000006  -0.000008
    16  C   -0.000005   0.000002   0.000012   0.000028   0.000000  -0.000001
    17  H    0.000000   0.000000  -0.000000  -0.000000  -0.000000  -0.000000
    18  H    0.000027   0.000007  -0.000323  -0.000745   0.000297  -0.000031
    19  H   -0.004193  -0.000010  -0.000403   0.001643   0.000105   0.000022
    20  H   -0.000000  -0.000000   0.000000  -0.000000  -0.000000  -0.000000
    21  H    0.000000   0.000000  -0.000000  -0.000000   0.000000   0.000000
    22  H    0.000000  -0.000000   0.000000  -0.000000   0.000000  -0.000000
    23  H    0.000020   0.000014  -0.000001  -0.000000  -0.000000   0.000000
    24  H   -0.000000  -0.000000   0.000002   0.000002  -0.000001   0.000002
    25  S    0.318425  -0.087130  -0.099308   0.326120  -0.003010   0.000108
    26  S   -0.093555   0.326968  -0.071033   0.009359   0.000022  -0.000001
    27  C    0.000046   0.015976  -0.000313   0.437945   0.422427   0.006943
    28  C   -0.000038  -0.001108  -0.049790  -0.051437  -0.038147  -0.041750
    29  C   -0.000678   0.013453  -0.029180  -0.056548   0.007500   0.411092
    30  C    0.011274  -0.088855   0.487084  -0.041518  -0.000697  -0.037141
    31  C   -0.092896   0.011518   0.000094  -0.000288  -0.000000   0.000000
    32  C    0.013373  -0.000618  -0.000016   0.000002   0.000000  -0.000000
    33  C   -0.001185  -0.000052   0.000026  -0.000002  -0.000000  -0.000000
    34  C    0.017497  -0.000415  -0.000494   0.000033   0.000000   0.000000
    35  C   -0.096416  -0.091157   0.003243   0.000001   0.000001  -0.000000
    36  C    0.377267  -0.012189   0.021209   0.002230  -0.000010  -0.000000
    37  C    5.472604   0.361976  -0.016837  -0.095318  -0.000106   0.000016
    38  C    0.361976   5.435514   0.396413  -0.093945  -0.000300  -0.000465
    39  C   -0.016837   0.396413   4.949210   0.385748   0.007344   0.007470
    40  C   -0.095318  -0.093945   0.385748   5.484947  -0.048522   0.000251
    41  H   -0.000106  -0.000300   0.007344  -0.048522   0.562384  -0.000312
    42  H    0.000016  -0.000465   0.007470   0.000251  -0.000312   0.569296
    43  H    0.000122  -0.011952  -0.045497   0.008974   0.000059  -0.007598
    44  H   -0.011875   0.000041   0.000009  -0.000078   0.000000   0.000000
    45  H   -0.000462   0.000017   0.000000  -0.000000  -0.000000   0.000000
    46  H   -0.000002   0.000010  -0.000000  -0.000000   0.000000   0.000000
    47  H   -0.000340  -0.000080  -0.000007   0.000001   0.000000  -0.000000
    48  H    0.000010  -0.000002  -0.000276   0.008901  -0.007819  -0.007380
              43         44         45         46         47         48
     1  S    0.000003  -0.000000   0.000000   0.000000  -0.000000   0.000000
     2  S    0.000022   0.000142   0.000001   0.000014  -0.000037   0.000001
     3  C   -0.000001   0.000000  -0.000000  -0.000000  -0.000000  -0.000001
     4  C   -0.000005  -0.000000   0.000000   0.000000   0.000000   0.000012
     5  C    0.000028  -0.000000   0.000000  -0.000000  -0.000000   0.000059
     6  C    0.000127   0.000000  -0.000000  -0.000000  -0.000000   0.000046
     7  C    0.000000   0.000000   0.000000  -0.000000  -0.000000   0.000000
     8  C   -0.000000   0.000000   0.000000   0.000000  -0.000001  -0.000000
     9  C   -0.000000   0.000000  -0.000000   0.000009   0.000021   0.000000
    10  C    0.000000   0.000009   0.000008   0.000047   0.000106   0.000000
    11  C    0.000000  -0.000009  -0.000000  -0.000003   0.000006  -0.000000
    12  C    0.000000  -0.000000   0.000000  -0.000000  -0.000001   0.000000
    13  C   -0.000001   0.000000  -0.000000  -0.000000   0.000000  -0.000000
    14  C   -0.000013  -0.000005   0.000000   0.000000   0.000001  -0.000000
    15  C    0.000027  -0.000000   0.000000   0.000000   0.000000   0.000002
    16  C   -0.000000  -0.000000   0.000000  -0.000000  -0.000000  -0.000001
    17  H    0.000000   0.000000  -0.000000   0.000000  -0.000000  -0.000000
    18  H    0.000003  -0.000000  -0.000000   0.000000  -0.000000   0.000219
    19  H    0.000002   0.000002  -0.000000   0.000000   0.000000   0.000024
    20  H    0.000000   0.000000   0.000000   0.000000   0.000000   0.000000
    21  H   -0.000000  -0.000000  -0.000000  -0.000000  -0.000000   0.000000
    22  H    0.000000  -0.000000  -0.000000   0.000003   0.000001  -0.000000
    23  H   -0.000000   0.000014   0.000059   0.000078   0.000032  -0.000000
    24  H   -0.000000   0.000000   0.000000   0.000000   0.000000   0.000004
    25  S   -0.000632   0.003262  -0.000006  -0.000003   0.000021  -0.000414
    26  S    0.003001  -0.000576   0.000099  -0.000371  -0.003361  -0.000003
    27  C   -0.000914  -0.000003   0.000000  -0.000000   0.000000  -0.042674
    28  C    0.007679   0.000000  -0.000000   0.000000  -0.000000   0.414646
    29  C   -0.039328  -0.000000  -0.000000   0.000000   0.000000  -0.041753
    30  C    0.420547   0.000000   0.000000   0.000000  -0.000000   0.007486
    31  C    0.000000   0.421282  -0.038008   0.007604  -0.000638   0.000000
    32  C   -0.000000  -0.040128   0.412420  -0.043176   0.007390   0.000000
    33  C    0.000000   0.007599  -0.041931   0.415016  -0.037366   0.000000
    34  C   -0.000003  -0.000980   0.007012  -0.041057   0.420316  -0.000000
    35  C   -0.000092   0.009162   0.000211   0.008839  -0.046461  -0.000000
    36  C    0.000013  -0.044439   0.007566  -0.000371   0.007310  -0.000000
    37  C    0.000122  -0.011875  -0.000462  -0.000002  -0.000340   0.000010
    38  C   -0.011952   0.000041   0.000017   0.000010  -0.000080  -0.000002
    39  C   -0.045497   0.000009   0.000000  -0.000000  -0.000007  -0.000276
    40  C    0.008974  -0.000078  -0.000000  -0.000000   0.000001   0.008901
    41  H    0.000059   0.000000  -0.000000   0.000000   0.000000  -0.007819
    42  H   -0.007598   0.000000   0.000000   0.000000  -0.000000  -0.007380
    43  H    0.567945   0.000000   0.000000   0.000000   0.000000  -0.000302
    44  H    0.000000   0.567711  -0.007613  -0.000304   0.000061  -0.000000
    45  H    0.000000  -0.007613   0.568772  -0.007412  -0.000312   0.000000
    46  H    0.000000  -0.000304  -0.007412   0.568482  -0.007735  -0.000000
    47  H    0.000000   0.000061  -0.000312  -0.007735   0.561501   0.000000
    48  H   -0.000302  -0.000000   0.000000  -0.000000   0.000000   0.569240
 Mulliken charges:
               1
     1  S    0.273773
     2  S    0.359285
     3  C   -0.075113
     4  C   -0.079175
     5  C   -0.115116
     6  C   -0.015751
     7  C   -0.044869
     8  C   -0.107168
     9  C   -0.088731
    10  C   -0.069408
    11  C   -0.233707
    12  C    0.012280
    13  C   -0.190812
    14  C   -0.190234
    15  C   -0.013945
    16  C   -0.191600
    17  H    0.094300
    18  H    0.088689
    19  H    0.109749
    20  H    0.093417
    21  H    0.094659
    22  H    0.093952
    23  H    0.108803
    24  H    0.093891
    25  S    0.249786
    26  S    0.272151
    27  C   -0.069939
    28  C   -0.082917
    29  C   -0.094090
    30  C   -0.043726
    31  C   -0.052570
    32  C   -0.109403
    33  C   -0.088575
    34  C   -0.064413
    35  C   -0.190513
    36  C   -0.000443
    37  C   -0.148598
    38  C   -0.169989
    39  C    0.059258
    40  C   -0.265240
    41  H    0.098767
    42  H    0.099331
[...]
 Alpha  occ. eigenvalues --   -0.59365  -0.58463  -0.56987  -0.51417  -0.50220
 Alpha  occ. eigenvalues --   -0.49097  -0.47492  -0.45651  -0.45496  -0.43992
 Alpha  occ. eigenvalues --   -0.43459  -0.43123  -0.40830  -0.40503  -0.39185
 Alpha  occ. eigenvalues --   -0.37284  -0.36629  -0.36204  -0.34755  -0.34568
 Alpha  occ. eigenvalues --   -0.34541  -0.32716  -0.28877  -0.28202  -0.24977
 Alpha  occ. eigenvalues --   -0.22873  -0.21142
 Alpha virt. eigenvalues --   -0.05634  -0.02355  -0.01598  -0.00538   0.00529
 Alpha virt. eigenvalues --    0.01813   0.04007   0.04132   0.04931   0.06274
 Alpha virt. eigenvalues --    0.07391   0.07898   0.08378   0.11281   0.12155
 Alpha virt. eigenvalues --    0.12961   0.13135   0.13213   0.14000   0.15844
 Alpha virt. eigenvalues --    0.16154   0.17705   0.19341   0.20644   0.23011
 Alpha virt. eigenvalues --    0.23155   0.24325   0.26898   0.27563   0.27685
 Alpha virt. eigenvalues --    0.28436   0.28987   0.29456   0.32878   0.34470
 Alpha virt. eigenvalues --    0.35827   0.37143   0.37441   0.38214   0.38784
 Alpha virt. eigenvalues --    0.38883   0.39778   0.40122   0.40604   0.41645
 Alpha virt. eigenvalues --    0.42095   0.42530   0.42664   0.44115   0.44468
 Alpha virt. eigenvalues --    0.44601   0.45384   0.45598   0.45806   0.45854
 Alpha virt. eigenvalues --    0.48376   0.49289   0.49469   0.50768   0.51611
 Alpha virt. eigenvalues --    0.53255   0.54814   0.56289   0.57146   0.58053
 Alpha virt. eigenvalues --    0.58699   0.59093   0.59418   0.59907   0.60359
 Alpha virt. eigenvalues --    0.60411   0.61633   0.62056   0.63624   0.63701
 Alpha virt. eigenvalues --    0.64647   0.66103   0.69589   0.70213   0.71869
 Alpha virt. eigenvalues --    0.72254   0.72781   0.73141   0.73662   0.74647
 Alpha virt. eigenvalues --    0.75797   0.76581   0.77499   0.78874   0.80150
 Alpha virt. eigenvalues --    0.80162   0.81842   0.83225   0.84213   0.84656
 Alpha virt. eigenvalues --    0.85760   0.85988   0.88325   0.88908   0.90284
 Alpha virt. eigenvalues --    0.90749   0.92271   0.93486   0.95972   0.96735
 Alpha virt. eigenvalues --    0.96753   0.98696   0.99409   1.00269   1.01682
 Alpha virt. eigenvalues --    1.02841   1.06057   1.06378   1.07540   1.08927
 Alpha virt. eigenvalues --    1.08966   1.09370   1.10726   1.11288   1.15743
 Alpha virt. eigenvalues --    1.18261   1.20258   1.21823   1.22319   1.24553
 Alpha virt. eigenvalues --    1.27961   1.28573   1.28963   1.34786   1.38699
 Alpha virt. eigenvalues --    1.40575   1.41488   1.42794   1.44201   1.44815
 Alpha virt. eigenvalues --    1.47146   1.47767   1.48942   1.52381   1.53863
 Alpha virt. eigenvalues --    1.53968   1.55929   1.56261   1.57906   1.58887
 Alpha virt. eigenvalues --    1.59642   1.60508   1.61021   1.61377   1.62167
 Alpha virt. eigenvalues --    1.63005   1.67110   1.69298   1.70367   1.71951
 Alpha virt. eigenvalues --    1.72872   1.73402   1.74565   1.75625   1.80208
 Alpha virt. eigenvalues --    1.80449   1.81565   1.82362   1.83269   1.83805
 Alpha virt. eigenvalues --    1.84229   1.86699   1.88786   1.89364   1.89440
 Alpha virt. eigenvalues --    1.89832   1.90823   1.90933   1.93661   1.93791
 Alpha virt. eigenvalues --    1.93884   1.96146   1.96192   1.98879   1.99490
 Alpha virt. eigenvalues --    2.00049   2.01111   2.02442   2.03435   2.06509
 Alpha virt. eigenvalues --    2.08045   2.10951   2.12006   2.14109   2.22431
 Alpha virt. eigenvalues --    2.25160   2.26306   2.26613   2.27653   2.32650
 Alpha virt. eigenvalues --    2.32800   2.32874   2.33279   2.34000   2.35759
 Alpha virt. eigenvalues --    2.37461   2.40468   2.47840   2.51992   2.53565
 Alpha virt. eigenvalues --    2.55488   2.56345   2.57262   2.59883   2.60227
 Alpha virt. eigenvalues --    2.61400   2.61610   2.62145   2.63709   2.64452
 Alpha virt. eigenvalues --    2.65123   2.65896   2.68911   2.68924   2.68999
 Alpha virt. eigenvalues --    2.70410   2.71688   2.73533   2.77368   2.79988
 Alpha virt. eigenvalues --    2.81351   2.81647   2.82207   2.83175   2.83583
 Alpha virt. eigenvalues --    2.87662   2.91705   2.92379   2.97020   3.03978
 Alpha virt. eigenvalues --    3.04299   3.07287   3.10371   3.15514   3.17190
 Alpha virt. eigenvalues --    3.23369   3.24266   3.29670   3.30263   3.31901
 Alpha virt. eigenvalues --    3.34398   3.38725   3.42628   3.44597   3.45777
 Alpha virt. eigenvalues --    3.50498   3.54556   3.55826   3.62654   3.75967
 Alpha virt. eigenvalues --    3.82196   3.98588   4.00437   4.01595   4.03790
 Alpha virt. eigenvalues --    4.11484   4.11840   4.19784   4.54946   4.79699
 Alpha virt. eigenvalues --    4.79826   7.81119   7.83950  17.19635  17.21066
 Alpha virt. eigenvalues --   17.43715  17.51189  17.52287  17.53379  23.35373
 Alpha virt. eigenvalues --   23.53811  23.68918  23.85655  23.85823  23.90157
 Alpha virt. eigenvalues --   23.92087  23.98132  24.01115  24.03741  24.07284
 Alpha virt. eigenvalues --   24.07407  24.14660  24.14770 188.92517 188.95387
          Condensed to atoms (all electrons):
              25         26         27         28         29         30
    25  S   15.370522   0.009509  -0.061459   0.005886  -0.000104   0.009384
    26  S    0.009509  15.370525  -0.000169  -0.000038   0.000327   0.002372
    27  C   -0.061459  -0.000169   4.861976   0.512596  -0.040615  -0.053514
    28  C    0.005886  -0.000038   0.512596   4.879623   0.492496  -0.051847
    29  C   -0.000104   0.000327  -0.040615   0.492496   4.878965   0.511504
    30  C    0.009384   0.002372  -0.053514  -0.051847   0.511504   4.875466
    31  C    0.002372   0.009384  -0.000001   0.000000  -0.000000  -0.000001
    32  C    0.000327  -0.000104   0.000000  -0.000000   0.000000  -0.000000
    33  C   -0.000038   0.005886  -0.000000   0.000000  -0.000000   0.000000
    34  C   -0.000169  -0.061459   0.000000  -0.000000   0.000000  -0.000001
    35  C    0.008663   0.306203   0.000033  -0.000002   0.000002  -0.000301
    36  C   -0.070640  -0.088260  -0.000510   0.000027  -0.000018   0.000095
    37  C    0.316759  -0.092102  -0.000489  -0.000022  -0.000613   0.011534
    38  C   -0.092102   0.316759   0.017259  -0.001042   0.013327  -0.089227
    39  C   -0.088260  -0.070641   0.006575  -0.049978  -0.029888   0.486126
    40  C    0.306204   0.008663   0.443282  -0.047946  -0.054767  -0.045304
    41  H   -0.003185   0.000023   0.419542  -0.037064   0.007348  -0.000568
    42  H    0.000110  -0.000002   0.007001  -0.041818   0.411183  -0.038059
    43  H   -0.000642   0.003289  -0.000908   0.007554  -0.039506   0.419764
    44  H    0.003289  -0.000642  -0.000003   0.000000  -0.000000   0.000000
    45  H   -0.000002   0.000110   0.000000  -0.000000  -0.000000   0.000000
    46  H   -0.000003  -0.000371  -0.000000   0.000000   0.000000   0.000000
    47  H    0.000023  -0.003185   0.000000  -0.000000   0.000000  -0.000000
    48  H   -0.000371  -0.000003  -0.041209   0.413909  -0.042678   0.007628
              31         32         33         34         35         36
    25  S    0.002372   0.000327  -0.000038  -0.000169   0.008663  -0.070640
    26  S    0.009384  -0.000104   0.005886  -0.061459   0.306203  -0.088260
    27  C   -0.000001   0.000000  -0.000000   0.000000   0.000033  -0.000510
    28  C    0.000000  -0.000000   0.000000  -0.000000  -0.000002   0.000027
    29  C   -0.000000   0.000000  -0.000000   0.000000   0.000002  -0.000018
    30  C   -0.000001  -0.000000   0.000000  -0.000001  -0.000301   0.000095
    31  C    4.875466   0.511503  -0.051847  -0.053515  -0.045303   0.486125
    32  C    0.511503   4.878965   0.492495  -0.040614  -0.054768  -0.029887
    33  C   -0.051847   0.492495   4.879624   0.512595  -0.047945  -0.049979
    34  C   -0.053515  -0.040614   0.512595   4.861976   0.443281   0.006576
    35  C   -0.045303  -0.054768  -0.047945   0.443281   5.390492   0.412305
    36  C    0.486125  -0.029887  -0.049979   0.006576   0.412305   4.949767
    37  C   -0.089227   0.013327  -0.001042   0.017259  -0.096659   0.392877
    38  C    0.011534  -0.000613  -0.000022  -0.000490  -0.086683  -0.014512
    39  C    0.000095  -0.000018   0.000027  -0.000510   0.003450   0.021086
    40  C   -0.000301   0.000002  -0.000002   0.000033  -0.000008   0.003450
    41  H   -0.000000   0.000000  -0.000000   0.000000   0.000001  -0.000009
    42  H    0.000000  -0.000000  -0.000000   0.000000  -0.000000  -0.000000
    43  H    0.000000  -0.000000   0.000000  -0.000003  -0.000107   0.000013
    44  H    0.419764  -0.039506   0.007554  -0.000908   0.008941  -0.045792
    45  H   -0.038059   0.411183  -0.041818   0.007001   0.000281   0.007543
    46  H    0.007628  -0.042678   0.413909  -0.041209   0.008883  -0.000338
    47  H   -0.000568   0.007348  -0.037064   0.419542  -0.047523   0.007228
    48  H    0.000000   0.000000   0.000000  -0.000000  -0.000000  -0.000000
              37         38         39         40         41         42
    25  S    0.316759  -0.092102  -0.088260   0.306204  -0.003185   0.000110
    26  S   -0.092102   0.316759  -0.070641   0.008663   0.000023  -0.000002
    27  C   -0.000489   0.017259   0.006575   0.443282   0.419542   0.007001
    28  C   -0.000022  -0.001042  -0.049978  -0.047946  -0.037064  -0.041818
    29  C   -0.000613   0.013327  -0.029888  -0.054767   0.007348   0.411183
    30  C    0.011534  -0.089227   0.486126  -0.045304  -0.000568  -0.038059
    31  C   -0.089227   0.011534   0.000095  -0.000301  -0.000000   0.000000
    32  C    0.013327  -0.000613  -0.000018   0.000002   0.000000  -0.000000
    33  C   -0.001042  -0.000022   0.000027  -0.000002  -0.000000  -0.000000
    34  C    0.017259  -0.000490  -0.000510   0.000033   0.000000   0.000000
    35  C   -0.096659  -0.086683   0.003450  -0.000008   0.000001  -0.000000
    36  C    0.392877  -0.014512   0.021086   0.003450  -0.000009  -0.000000
    37  C    5.459038   0.363442  -0.014513  -0.086684  -0.000118   0.000016
    38  C    0.363442   5.459036   0.392878  -0.096659  -0.000333  -0.000469
    39  C   -0.014513   0.392878   4.949766   0.412306   0.007228   0.007543
    40  C   -0.086684  -0.096659   0.412306   5.390492  -0.047523   0.000281
    41  H   -0.000118  -0.000333   0.007228  -0.047523   0.565102  -0.000321
    42  H    0.000016  -0.000469   0.007543   0.000281  -0.000321   0.571820
    43  H    0.000092  -0.012023  -0.045792   0.008941   0.000064  -0.007644
    44  H   -0.012023   0.000092   0.000013  -0.000107   0.000000   0.000000
    45  H   -0.000469   0.000016  -0.000000  -0.000000  -0.000000   0.000000
    46  H   -0.000002   0.000010  -0.000000  -0.000000   0.000000   0.000000
    47  H   -0.000333  -0.000118  -0.000009   0.000001   0.000000  -0.000000
    48  H    0.000010  -0.000002  -0.000338   0.008883  -0.007754  -0.007455
              43         44         45         46         47         48
    25  S   -0.000642   0.003289  -0.000002  -0.000003   0.000023  -0.000371
    26  S    0.003289  -0.000642   0.000110  -0.000371  -0.003185  -0.000003
    27  C   -0.000908  -0.000003   0.000000  -0.000000   0.000000  -0.041209
    28  C    0.007554   0.000000  -0.000000   0.000000  -0.000000   0.413909
    29  C   -0.039506  -0.000000  -0.000000   0.000000   0.000000  -0.042678
    30  C    0.419764   0.000000   0.000000   0.000000  -0.000000   0.007628
    31  C    0.000000   0.419764  -0.038059   0.007628  -0.000568   0.000000
    32  C   -0.000000  -0.039506   0.411183  -0.042678   0.007348   0.000000
    33  C    0.000000   0.007554  -0.041818   0.413909  -0.037064   0.000000
    34  C   -0.000003  -0.000908   0.007001  -0.041209   0.419542  -0.000000
    35  C   -0.000107   0.008941   0.000281   0.008883  -0.047523  -0.000000
    36  C    0.000013  -0.045792   0.007543  -0.000338   0.007228  -0.000000
    37  C    0.000092  -0.012023  -0.000469  -0.000002  -0.000333   0.000010
    38  C   -0.012023   0.000092   0.000016   0.000010  -0.000118  -0.000002
    39  C   -0.045792   0.000013  -0.000000  -0.000000  -0.000009  -0.000338
    40  C    0.008941  -0.000107  -0.000000  -0.000000   0.000001   0.008883
    41  H    0.000064   0.000000  -0.000000   0.000000   0.000000  -0.007754
    42  H   -0.007644   0.000000   0.000000   0.000000  -0.000000  -0.007455
    43  H    0.571387   0.000000   0.000000   0.000000   0.000000  -0.000308
    44  H    0.000000   0.571387  -0.007644  -0.000308   0.000064   0.000000
    45  H    0.000000  -0.007644   0.571820  -0.007455  -0.000321   0.000000
    46  H    0.000000  -0.000308  -0.007455   0.570654  -0.007754  -0.000000
    47  H    0.000000   0.000064  -0.000321  -0.007754   0.565102   0.000000
    48  H   -0.000308   0.000000   0.000000  -0.000000   0.000000   0.570655
 Mulliken charges:
               1
     1  S    0.000000
     2  S    0.000000
     3  C    0.000000
     4  C    0.000000
     5  C    0.000000
     6  C    0.000000
     7  C    0.000000
     8  C    0.000000
     9  C    0.000000
    10  C    0.000000
    11  C    0.000000
    12  C    0.000000
    13  C    0.000000
    14  C    0.000000
    15  C    0.000000
    16  C    0.000000
    17  H    0.000000
    18  H    0.000000
    19  H    0.000000
    20  H    0.000000
    21  H    0.000000
    22  H    0.000000
    23  H    0.000000
    24  H    0.000000
    25  S    0.283930
    26  S    0.283928
    27  C   -0.069388
    28  C   -0.082332
    29  C   -0.106963
    30  C   -0.045051
    31  C   -0.045050
    32  C   -0.106963
    33  C   -0.082332
    34  C   -0.069388
    35  C   -0.203235
    36  C    0.012855
    37  C   -0.180058
    38  C   -0.180058
    39  C    0.012856
    40  C   -0.203236
    41  H    0.097567
    42  H    0.097813
    43  H    0.095828
    44  H    0.095828
    45  H    0.097813
    46  H    0.099034
    47  H    0.097567
    48  H    0.099034
 Sum of Mulliken charges =  -0.00000
 Mulliken charges with hydrogens summed into heavy atoms:
               1
     1  S    0.000000
     2  S    0.000000
     3  C    0.000000
     4  C    0.000000
     5  C    0.000000
     6  C    0.000000
     7  C    0.000000
     8  C    0.000000
     9  C    0.000000
    10  C    0.000000
    11  C    0.000000
    12  C    0.000000
    13  C    0.000000
    14  C    0.000000
    15  C    0.000000
    16  C    0.000000
    25  S    0.283930
    26  S    0.283928
    27  C    0.028179
    28  C    0.016702
    29  C   -0.009149
    30  C    0.050777
    31  C    0.050777
    32  C   -0.009150
    33  C    0.016702
    34  C    0.028179
    35  C   -0.203235
    36  C    0.012855
    37  C   -0.180058
    38  C   -0.180058
    39  C    0.012856
    40  C   -0.203236
         Mulliken charges condensed to fragments:
      1      0.000000
      2     -0.000000
 Electronic spatial extent (au):  <R**2>=           7134.1704
 Charge=             -0.0000 electrons
 Dipole moment (field-independent basis, Debye):
    X=             -0.0000    Y=              0.0000    Z=             -0.0000  Tot=              0.0000
 Quadrupole moment (field-independent basis, Debye-Ang):
   XX=            -91.2926   YY=           -110.4594   ZZ=            -98.5242
   XY=              7.5285   XZ=             -0.2574   YZ=              2.9262
 Traceless Quadrupole moment (field-independent basis, Debye-Ang):
   XX=              8.7994   YY=            -10.3673   ZZ=              1.5679
   XY=              7.5285   XZ=             -0.2574   YZ=              2.9262
 Octapole moment (field-independent basis, Debye-Ang**2):
  XXX=           -216.4197  YYY=            779.0337  ZZZ=            -57.5818  XYY=           -122.6827
  XXY=            226.5169  XXZ=            -18.1919  XZZ=            -77.9547  YZZ=            232.7597
  YYZ=            -35.2774  XYZ=              4.3842
 Hexadecapole moment (field-independent basis, Debye-Ang**3):
 XXXX=          -4225.0459 YYYY=          -4401.2837 ZZZZ=          -1195.6270 XXXY=             11.8372
 XXXZ=           -154.2220 YYYX=            -31.4690 YYYZ=             63.0048 ZZZX=           -105.6037
 ZZZY=             28.7825 XXYY=          -1443.6887 XXZZ=           -895.2553 YYZZ=           -869.2503
 XXYZ=             29.1960 YYXZ=            -42.3628 ZZXY=            -13.6555
 N-N= 1.192162449365D+03 E-N=-5.527361721179D+03  KE= 1.331399856315D+03
 CPIOFr:  IOpCl= 0 IRwI=-1 IRwCP=  731 ICalc=  4 LCPTot=      762852 Len1MO=     1998050 IndFrg=    10753102
 CPIOFr:  IOpCl= 0 IRwI=-2 IRwCP=  731 ICalc=  0 LCPTot=      762852 Len1MO=     1998050 IndFrg=     2760902
 Counterpoise corrected energy =   -2669.807035636588
                   BSSE energy =       0.003369867687
              sum of fragments =   -2669.794634390246
           complexation energy =      -9.90 kcal/mole (raw)
           complexation energy =      -7.78 kcal/mole (corrected)
 1\1\GINC-CMDELL86\SP\RB3LYP\6-311G(d,p)\C28H16S4\OHNO\14-Jul-2021\0\\#
 b3lyp/6-311G** EmpiricalDispersion=GD3 counterpoise=2\\BTBT dimer b3ly
 p/6-311G**\\0,1\S,0,1.6203193263,0.9333401805,-0.9655543418\S,0,-1.620
 3215046,-0.9333388826,0.9655526073\C,0,0.7607010875,0.432046614,-3.596
 4890673\C,0,-0.1990145233,-0.0970811798,-4.456605144\C,0,-1.3358730484
 ,-0.7617409166,-3.9518894629\C,0,-1.5484008838,-0.8661903564,-2.581713
 2069\C,0,1.5483981093,0.866196593,2.581713372\C,0,1.3358706776,0.76174
 32744,3.9518892671\C,0,0.19901583,0.0970776341,4.4566055645\C,0,-0.760
 6973501,-0.4320550248,3.5964887592\C,0,-0.5418750743,-0.3467155574,2.2
 136722139\C,0,0.5874862401,0.3462927079,1.6917199634\C,0,0.5677107081,
 0.3035896045,0.2629304608\C,0,-0.5677107915,-0.3035871419,-0.262930279
 8\C,0,-0.5874867399,-0.3462921765,-1.6917195198\C,0,0.5418798052,0.346
 711325,-2.2136710574\H,0,1.6351619757,0.9441051055,-3.9892419249\H,0,-
 2.069015815,-1.1685664408,-4.6425298944\H,0,-2.4232632237,-1.382224776
 ,-2.1937042881\H,0,2.4232592385,1.3822352091,2.193705084\H,0,2.0690081
 682,1.1685767873,4.6425301772\H,0,0.0489377359,0.0282464127,5.53031334
 02\H,0,-1.6351576368,-0.9441151195,3.9892396112\H,0,-0.0489323111,-0.0
 282538749,-5.5303122329\S,0,-4.5453193263,-3.0916598195,-0.9655543418\
 S,0,-1.3046784954,-4.9583388826,0.9655526073\C,0,-3.6857010875,-3.5929
 53386,-3.5964890673\C,0,-2.7259854767,-4.1220811798,-4.456605144\C,0,-
 1.5891269516,-4.7867409166,-3.9518894629\C,0,-1.3765991162,-4.89119035
 64,-2.5817132069\C,0,-4.4733981093,-3.158803407,2.581713372\C,0,-4.260
 8706776,-3.2632567256,3.9518892671\C,0,-3.12401583,-3.9279223659,4.456
 6055645\C,0,-2.1643026499,-4.4570550248,3.5964887592\C,0,-2.3831249257
 ,-4.3717155574,2.2136722139\C,0,-3.5124862401,-3.6787072921,1.69171996
 34\C,0,-3.4927107081,-3.7214103955,0.2629304608\C,0,-2.3572892085,-4.3
 285871419,-0.2629302798\C,0,-2.3375132601,-4.3712921765,-1.6917195198\
 C,0,-3.4668798052,-3.678288675,-2.2136710574\H,0,-4.5601619757,-3.0808
 948945,-3.9892419249\H,0,-0.855984185,-5.1935664408,-4.6425298944\H,0,
 -0.5017367763,-5.407224776,-2.1937042881\H,0,-5.3482592385,-2.64276479
 09,2.193705084\H,0,-4.9940081682,-2.8564232127,4.6425301772\H,0,-2.973
 9377359,-3.9967535873,5.5303133402\H,0,-1.2898423632,-4.9691151195,3.9
 892396112\H,0,-2.8760676889,-4.0532538749,-5.5303122329\\Version=ES64L
 -G16RevA.03\State=1-A\HF=-1334.8973179\RMSD=8.941e-09\Dipole=-0.111178
 9,-0.3410417,-0.0246019\Quadrupole=-2.5946465,-13.7140064,16.308653,-1
 .151717,-0.3446881,0.8471648\PG=C01 [X(C28H16S4)]\\@


 IT IS A PROFOUNDLY ERRONEOUS TRUISM ... THAT WE SHOULD CULTIVATE
 THE HABIT OF THINKING OF WHAT WE ARE DOING.
 THE PRECISE OPPOSITE IS THE CASE.
 CIVILIZATION ADVANCES BY EXTENDING THE NUMBER OF IMPORTANT OPERATIONS
 WHICH WE CAN PERFORM WITHOUT THINKING ABOUT THEM.

                                    -- ALFRED NORTH WHITEHEAD
 Job cpu time:       0 days  2 hours 21 minutes 48.2 seconds.
 Elapsed time:       0 days  0 hours  3 minutes 35.7 seconds.
 File lengths (MBytes):  RWF=    395 Int=      0 D2E=      0 Chk=    113 Scr=      2
 Normal termination of Gaussian 16 at Wed Jul 14 12:06:33 2021.
