 Entering Gaussian System, Link 0=g16
 Initial command:
 /home/g03/g16/l1.exe "/home/scr/21098/Gau-192424.inp" -scrdir="/home/scr/21098/"
 Entering Link 1 = /home/g03/g16/l1.exe PID=    192425.
  
 Copyright (c) 1988,1990,1992,1993,1995,1998,2003,2009,2016,
            Gaussian, Inc.  All Rights Reserved.
  
 This is part of the Gaussian(R) 16 program.  It is based on
 the Gaussian(R) 09 system (copyright 2009, Gaussian, Inc.),
 the Gaussian(R) 03 system (copyright 2003, Gaussian, Inc.),
 the Gaussian(R) 98 system (copyright 1998, Gaussian, Inc.),
 the Gaussian(R) 94 system (copyright 1995, Gaussian, Inc.),
 the Gaussian 92(TM) system (copyright 1992, Gaussian, Inc.),
 the Gaussian 90(TM) system (copyright 1990, Gaussian, Inc.),
 the Gaussian 88(TM) system (copyright 1988, Gaussian, Inc.),
 the Gaussian 86(TM) system (copyright 1986, Carnegie Mellon
 University), and the Gaussian 82(TM) system (copyright 1983,
 Carnegie Mellon University). Gaussian is a federally registered
 trademark of Gaussian, Inc.
  
 This software contains proprietary and confidential information,
 including trade secrets, belonging to Gaussian, Inc.
  
 This software is provided under written license and may be
 used, copied, transmitted, or stored only in accord with that
 written license.
  
 The following legend is applicable only to US Government
 contracts under FAR:
  
                    RESTRICTED RIGHTS LEGEND
  
 Use, reproduction and disclosure by the US Government is
 subject to restrictions as set forth in subparagraphs (a)
 and (c) of the Commercial Computer Software - Restricted
 Rights clause in FAR 52.227-19.
  
 Gaussian, Inc.
 340 Quinnipiac St., Bldg. 40, Wallingford CT 06492
  
  
 ---------------------------------------------------------------
 Warning -- This program may not be used in any manner that
 competes with the business of Gaussian, Inc. or will provide
 assistance to any competitor of Gaussian, Inc.  The licensee
 of this program is prohibited from giving any competitor of
 Gaussian, Inc. access to this program.  By using this program,
 the user acknowledges that Gaussian, Inc. is engaged in the
 business of creating and licensing software in the field of
 computational chemistry and represents and warrants to the
 licensee that it is not a competitor of Gaussian, Inc. and that
 it will not use this program in any manner prohibited above.
 ---------------------------------------------------------------
  

 Cite this work as:
 Gaussian 16, Revision A.03,
 M. J. Frisch, G. W. Trucks, H. B. Schlegel, G. E. Scuseria, 
 M. A. Robb, J. R. Cheeseman, G. Scalmani, V. Barone, 
 G. A. Petersson, H. Nakatsuji, X. Li, M. Caricato, A. V. Marenich, 
 J. Bloino, B. G. Janesko, R. Gomperts, B. Mennucci, H. P. Hratchian, 
 J. V. Ortiz, A. F. Izmaylov, J. L. Sonnenberg, D. Williams-Young, 
 F. Ding, F. Lipparini, F. Egidi, J. Goings, B. Peng, A. Petrone, 
 T. Henderson, D. Ranasinghe, V. G. Zakrzewski, J. Gao, N. Rega, 
 G. Zheng, W. Liang, M. Hada, M. Ehara, K. Toyota, R. Fukuda, 
 J. Hasegawa, M. Ishida, T. Nakajima, Y. Honda, O. Kitao, H. Nakai, 
 T. Vreven, K. Throssell, J. A. Montgomery, Jr., J. E. Peralta, 
 F. Ogliaro, M. J. Bearpark, J. J. Heyd, E. N. Brothers, K. N. Kudin, 
 V. N. Staroverov, T. A. Keith, R. Kobayashi, J. Normand, 
 K. Raghavachari, A. P. Rendell, J. C. Burant, S. S. Iyengar, 
 J. Tomasi, M. Cossi, J. M. Millam, M. Klene, C. Adamo, R. Cammi, 
 J. W. Ochterski, R. L. Martin, K. Morokuma, O. Farkas, 
 J. B. Foresman, and D. J. Fox, Gaussian, Inc., Wallingford CT, 2016.
 
 ******************************************
 Gaussian 16:  ES64L-G16RevA.03 25-Dec-2016
                14-Jul-2021 
 ******************************************
 %NProcShared=40
 Will use up to   40 processors via shared memory.
 %Mem=15GB
 ------------------------------------------------------
 #b3lyp/6-311G** EmpiricalDispersion=GD3 counterpoise=2
 ------------------------------------------------------
 1/38=1,62=2,172=1/1;
 2/12=2,17=6,18=5,40=1/2;
 1/38=1,53=2,62=2,63=1/22;
 3/5=4,6=6,7=101,11=2,25=1,30=1,74=-5,124=31/1,2,3;
 4//1;
 5/5=2,38=5/2;
 6/7=2,8=2,9=2,10=2,28=1/1;
 1/53=2,62=2,63=1/22;
 3/5=7,6=11,7=101,11=2,25=1,30=1,74=-5,82=7,124=31/1,2,3;
 4//1;
 5/5=2,38=5/2;
 6/7=2,8=2,9=2,10=2,28=1/1;
 1/53=2,62=2,63=1/22(-4);
 99/5=1,9=1/99;
 -------------------------
 BTBT dimer b3lyp/6-311G**
 -------------------------
 Symbolic Z-matrix:
 Charge =  0 Multiplicity = 1 in supermolecule
 Charge =  0 Multiplicity = 1 in fragment      1.
 Charge =  0 Multiplicity = 1 in fragment      2.
 S                     1.62032   0.93334  -0.96555    
 S                    -1.62032  -0.93334   0.96555    
 C                     0.7607    0.43205  -3.59649    
 C                    -0.19901  -0.09708  -4.45661    
 C                    -1.33587  -0.76174  -3.95189    
 C                    -1.5484   -0.86619  -2.58171    
 C                     1.5484    0.8662    2.58171    
 C                     1.33587   0.76174   3.95189    
 C                     0.19902   0.09708   4.45661    
 C                    -0.7607   -0.43206   3.59649    
 C                    -0.54188  -0.34672   2.21367    
 C                     0.58749   0.34629   1.69172    
 C                     0.56771   0.30359   0.26293    
 C                    -0.56771  -0.30359  -0.26293    
 C                    -0.58749  -0.34629  -1.69172    
 C                     0.54188   0.34671  -2.21367    
 H                     1.63516   0.94411  -3.98924    
 H                    -2.06902  -1.16857  -4.64253    
 H                    -2.42326  -1.38222  -2.1937     
 H                     2.42326   1.38224   2.19371    
 H                     2.06901   1.16858   4.64253    
 H                     0.04894   0.02825   5.53031    
 H                    -1.63516  -0.94412   3.98924    
 H                    -0.04893  -0.02825  -5.53031    
 S                     1.62032   9.00334  -0.96555    
 S                    -1.62032   7.13666   0.96555    
 C                     0.7607    8.50205  -3.59649    
 C                    -0.19901   7.97292  -4.45661    
 C                    -1.33587   7.30826  -3.95189    
 C                    -1.5484    7.20381  -2.58171    
 C                     1.5484    8.9362    2.58171    
 C                     1.33587   8.83174   3.95189    
 C                     0.19902   8.16708   4.45661    
 C                    -0.7607    7.63794   3.59649    
 C                    -0.54188   7.72328   2.21367    
 C                     0.58749   8.41629   1.69172    
 C                     0.56771   8.37359   0.26293    
 C                    -0.56771   7.76641  -0.26293    
 C                    -0.58749   7.72371  -1.69172    
 C                     0.54188   8.41671  -2.21367    
 H                     1.63516   9.01411  -3.98924    
 H                    -2.06902   6.90143  -4.64253    
 H                    -2.42326   6.68778  -2.1937     
 H                     2.42326   9.45224   2.19371    
 H                     2.06901   9.23858   4.64253    
 H                     0.04894   8.09825   5.53031    
 H                    -1.63516   7.12588   3.98924    
 H                    -0.04893   8.04175  -5.53031    
 
                          Input orientation:                          
 ---------------------------------------------------------------------
 Center     Atomic      Atomic             Coordinates (Angstroms)
 Number     Number       Type             X           Y           Z
 ---------------------------------------------------------------------
      1         16           0        1.620319    0.933340   -0.965554
      2         16           0       -1.620322   -0.933339    0.965553
      3          6           0        0.760701    0.432047   -3.596489
      4          6           0       -0.199015   -0.097081   -4.456605
      5          6           0       -1.335873   -0.761741   -3.951889
      6          6           0       -1.548401   -0.866190   -2.581713
      7          6           0        1.548398    0.866197    2.581713
      8          6           0        1.335871    0.761743    3.951889
      9          6           0        0.199016    0.097078    4.456606
     10          6           0       -0.760697   -0.432055    3.596489
     11          6           0       -0.541875   -0.346716    2.213672
     12          6           0        0.587486    0.346293    1.691720
     13          6           0        0.567711    0.303590    0.262930
     14          6           0       -0.567711   -0.303587   -0.262930
     15          6           0       -0.587487   -0.346292   -1.691720
     16          6           0        0.541880    0.346711   -2.213671
     17          1           0        1.635162    0.944105   -3.989242
     18          1           0       -2.069016   -1.168566   -4.642530
     19          1           0       -2.423263   -1.382225   -2.193704
     20          1           0        2.423259    1.382235    2.193705
     21          1           0        2.069008    1.168577    4.642530
     22          1           0        0.048938    0.028246    5.530313
     23          1           0       -1.635158   -0.944115    3.989240
     24          1           0       -0.048932   -0.028254   -5.530312
     25         16           0        1.620319    9.003340   -0.965554
     26         16           0       -1.620322    7.136661    0.965553
     27          6           0        0.760701    8.502047   -3.596489
     28          6           0       -0.199015    7.972919   -4.456605
     29          6           0       -1.335873    7.308259   -3.951889
     30          6           0       -1.548401    7.203810   -2.581713
     31          6           0        1.548398    8.936197    2.581713
     32          6           0        1.335871    8.831743    3.951889
     33          6           0        0.199016    8.167078    4.456606
     34          6           0       -0.760697    7.637945    3.596489
     35          6           0       -0.541875    7.723284    2.213672
     36          6           0        0.587486    8.416293    1.691720
     37          6           0        0.567711    8.373590    0.262930
     38          6           0       -0.567711    7.766413   -0.262930
     39          6           0       -0.587487    7.723708   -1.691720
     40          6           0        0.541880    8.416711   -2.213671
     41          1           0        1.635162    9.014105   -3.989242
     42          1           0       -2.069016    6.901434   -4.642530
     43          1           0       -2.423263    6.687775   -2.193704
     44          1           0        2.423259    9.452235    2.193705
     45          1           0        2.069008    9.238577    4.642530
     46          1           0        0.048938    8.098246    5.530313
     47          1           0       -1.635158    7.125885    3.989240
     48          1           0       -0.048932    8.041746   -5.530312
 ---------------------------------------------------------------------
                    Distance matrix (angstroms):
                    1          2          3          4          5
     1  S    0.000000
     2  S    4.208969   0.000000
     3  C    2.812838   5.324075   0.000000
     4  C    4.069297   5.667383   1.393137   0.000000
     5  C    4.531067   4.928650   2.438660   1.410304   0.000000
     6  C    3.986360   3.548630   2.836748   2.434665   1.390489
     7  C    3.548632   3.986363   6.243327   7.315687   7.325105
     8  C    4.928652   4.531069   7.577436   8.590473   8.481093
     9  C    5.667385   4.069299   8.079606   8.924206   8.590474
    10  C    5.324076   2.812839   7.402719   8.079605   7.577436
    11  C    4.052297   1.750707   6.005094   6.683747   6.230315
    12  C    2.910752   2.653147   5.291740   6.214263   6.064435
    13  C    1.736014   2.609819   3.866376   4.798169   4.745868
    14  C    2.609817   1.736015   3.663120   4.214913   3.795840
    15  C    2.653146   2.910750   2.459994   2.803143   2.416826
    16  C    1.750703   4.052296   1.402623   2.403462   2.788553
    17  H    3.023743   6.218759   1.086803   2.160255   3.426128
    18  H    5.616881   5.630919   3.415181   2.163228   1.086273
    19  H    4.818792   3.290459   3.923903   3.423390   2.158387
    20  H    3.290462   4.818795   6.098632   7.300091   7.516385
    21  H    5.630921   5.616882   8.374699   9.462562   9.443696
    22  H    6.744237   4.954605   9.163416   9.990782   9.615298
    23  H    6.218758   3.023743   8.073242   8.608848   7.948859
    24  H    4.954602   6.744235   2.146405   1.086328   2.164633
    25  S    8.070000  10.628665   9.007099   9.915396  10.630808
    26  S    7.260311   8.070000   8.451825   9.151335   9.308432
    27  C    8.058913  10.747464   8.070000   8.695163   9.504719
    28  C    8.065549  10.523371   7.650203   8.070000   8.822781
    29  C    7.635238   9.601358   7.197516   7.509078   8.070000
    30  C    7.209129   8.877018   7.226237   7.657615   8.085329
    31  C    8.754084  10.490972  10.540931  11.584105  12.043960
    32  C    9.308433  10.630809  11.307685  12.360524  12.713885
    33  C    9.151332   9.915393  11.180274  12.161417  12.360521
    34  C    8.451817   9.007091  10.294589  11.180270  11.307677
    35  C    7.802942   8.812376   9.413651  10.284370  10.518566
    36  C    8.007648   9.634176   9.578275  10.530813  10.944676
    37  C    7.614097   9.586453   8.831787   9.726980  10.239268
    38  C    7.209164   8.848889   8.165183   8.919495   9.323513
    39  C    7.177104   9.114401   7.655983   8.304230   8.813132
    40  C    7.663007  10.109699   8.106475   8.835403   9.528449
    41  H    8.627959  11.580147   8.635431   9.305716  10.217417
    42  H    7.921457   9.645495   7.138240   7.246425   7.729083
    43  H    7.139498   8.288969   7.158182   7.490145   7.731036
    44  H    9.121250  11.212451  10.846854  11.928637  12.498989
    45  H   10.031395  11.428000  12.130461  13.232260  13.618503
    46  H    9.798031  10.256364  11.940509  12.921432  13.051025
    47  H    8.572965   8.607787  10.396677  11.205625  11.196684
    48  H    8.611205  11.190070   7.893206   8.210717   9.035985
                    6          7          8          9         10
     6  C    0.000000
     7  C    6.265166   0.000000
     8  C    7.325104   1.390489   0.000000
     9  C    7.315687   2.434666   1.410304   0.000000
    10  C    6.243327   2.836750   2.438660   1.393137   0.000000
    11  C    4.927339   2.444556   2.788550   2.403460   1.402622
    12  C    4.928931   1.409163   2.416825   2.803143   2.459994
    13  C    3.733405   2.579734   3.795839   4.214913   3.663121
    14  C    2.579734   3.733404   4.745867   4.798168   3.866376
    15  C    1.409162   4.928931   6.064435   6.214263   5.291739
    16  C    2.444557   4.927338   6.230314   6.683746   6.005093
    17  H    3.923440   6.571990   7.948861   8.608851   8.073244
    18  H    2.146960   8.331605   9.443696   9.462562   8.374698
    19  H    1.087302   6.605612   7.516383   7.300089   6.098630
    20  H    6.605613   1.087303   2.158387   3.423391   3.923905
    21  H    8.331604   2.146959   1.086273   2.163227   3.415181
    22  H    8.316038   3.412445   2.164633   1.086328   2.146407
    23  H    6.571988   3.923441   3.426129   2.160256   1.086802
    24  H    3.412445   8.316037   9.615296   9.990781   9.163414
    25  S   10.490967   8.877015   9.601358  10.523376  10.747472
    26  S    8.754079   7.209125   7.635238   8.065555   8.058923
    27  C    9.701834   9.853774  10.826871  11.653812  11.570296
    28  C    9.135968  10.153663  11.183010  11.900951  11.653815
    29  C    8.291211   9.618064  10.604942  11.183014  10.826879
    30  C    8.070000   8.741652   9.618066  10.153671   9.853785
    31  C   11.503822   8.070000   8.291214   9.135977   9.701847
    32  C   12.043957   8.085325   8.070000   8.822786   9.504729
    33  C   11.584098   7.657605   7.509071   8.070000   8.695167
    34  C   10.540919   7.226221   7.197504   7.650198   8.070000
    35  C    9.888776   7.178046   7.416898   7.983652   8.274638
    36  C   10.439767   7.662858   8.016269   8.775240   9.150902
    37  C    9.896639   7.918299   8.493450   9.285661   9.508767
    38  C    8.992238   7.757764   8.393672   9.037732   9.063511
    39  C    8.689177   8.357613   9.166165   9.827816   9.721709
    40  C    9.522447   9.001059   9.861191  10.668948  10.665614
    41  H   10.475517  10.467731  11.456553  12.365607  12.349631
    42  H    8.053197  10.084615  11.097436  11.586091  11.107348
    43  H    7.614350   8.512901   9.328304   9.723182   9.326438
    44  H   12.043613   8.639212   8.932988   9.878611  10.478768
    45  H   12.937606   8.637983   8.536462   9.332655  10.130279
    46  H   12.194982   7.952683   7.613928   8.074285   8.784146
    47  H   10.346894   7.162392   7.023582   7.279200   7.618490
    48  H    9.502314  10.947371  12.034462  12.763924  12.474390
                   11         12         13         14         15
    11  C    0.000000
    12  C    1.424132   0.000000
    13  C    2.336551   1.429564   0.000000
    14  C    2.477113   2.361669   1.390818   0.000000
    15  C    3.905658   3.647999   2.361670   1.429564   0.000000
    16  C    4.610503   3.905657   2.477112   2.336551   1.424133
    17  H    6.699392   5.807610   4.430653   4.504973   3.447304
    18  H    7.072136   7.033813   5.760478   4.709883   3.402697
    19  H    4.902741   5.210461   4.221724   2.886940   2.166846
    20  H    3.432447   2.166848   2.886941   4.221724   5.210463
    21  H    3.874555   3.402696   4.709882   5.760477   7.033812
    22  H    3.389656   3.889214   5.300025   5.835413   7.259688
    23  H    2.169053   3.447303   4.504972   4.430651   5.807607
    24  H    7.766190   7.259688   5.835412   5.300024   3.889214
    25  S   10.109704   9.114402   8.848888   9.586452   9.634176
    26  S    7.663013   7.177105   7.209163   7.614096   8.007648
    27  C   10.665612   9.721701   9.063502   9.508758   9.150894
    28  C   10.668949   9.827813   9.037726   9.285655   8.775236
    29  C    9.861198   9.166167   8.393672   8.493450   8.016271
    30  C    9.001069   8.357618   7.757768   7.918302   7.662864
    31  C    9.522455   8.689182   8.992241   9.896642  10.439772
    32  C    9.528454   8.813133   9.323513  10.239267  10.944677
    33  C    8.835403   8.304227   8.919489   9.726975  10.530810
    34  C    8.106471   7.655974   8.165173   8.831777   9.578267
    35  C    8.070000   7.481170   7.751674   8.400291   8.965056
    36  C    8.850887   8.070000   8.237584   9.010629   9.466315
    37  C    9.004460   8.153486   8.070000   8.766933   9.010631
    38  C    8.482752   7.759724   7.566997   8.070000   8.237585
    39  C    8.965818   8.200883   7.759722   8.153484   8.070000
    40  C    9.877932   8.965814   8.482745   9.004454   8.850883
    41  H   11.438557  10.416426   9.751590  10.274115   9.891199
    42  H   10.093331   9.494714   8.634084   8.564294   7.964404
    43  H    8.511677   8.023437   7.465843   7.486662   7.286986
    44  H   10.237766   9.302701   9.532506  10.495572  10.962311
    45  H   10.227116   9.485510  10.063239  11.048471  11.791921
    46  H    9.092115   8.667042   9.421843  10.224125  11.129826
    47  H    7.758071   7.495439   8.079710   8.626555   9.444805
    48  H   11.427098  10.572738   9.686123   9.882258   9.240347
                   16         17         18         19         20
    16  C    0.000000
    17  H    2.169054   0.000000
    18  H    3.874558   4.314058   0.000000
    19  H    3.432447   5.010647   2.483523   0.000000
    20  H    4.902740   6.248351   8.568619   7.097914   0.000000
    21  H    7.072134   8.645583  10.430619   8.568617   2.483523
    22  H    7.766190   9.694165  10.459676   8.231747   4.313194
    23  H    6.699390   8.827034   8.645580   6.248347   5.010648
    24  H    3.389656   2.481240   2.483789   4.313193   8.231747
    25  S    8.812381   8.607797  11.427993  11.212443   8.288961
    26  S    7.802948   8.572976  10.031387   9.121241   7.139490
    27  C    8.274634   7.618492  10.130264  10.478753   9.326423
    28  C    7.983653   7.279207   9.332643   9.878599   9.723171
    29  C    7.416907   7.023596   8.536454   8.932981   9.328299
    30  C    7.178059   7.162410   8.637979   8.639208   8.512898
    31  C    9.888784  10.346908  12.937605  12.043609   7.614346
    32  C   10.518570  11.196695  13.618498  12.498982   7.731028
    33  C   10.284370  11.205632  13.232252  11.928627   7.490131
    34  C    9.413647  10.396679  12.130448  10.846839   7.158162
    35  C    8.671201   9.443141  11.331579  10.289552   7.000095
    36  C    8.965060   9.444816  11.791915  10.962303   7.286976
    37  C    8.400297   8.626567  11.048466  10.495565   7.486654
    38  C    7.751681   8.079723  10.063233   9.532499   7.465834
    39  C    7.481175   7.495451   9.485502   9.302692   8.023428
    40  C    8.070000   7.758077  10.227105  10.237755   8.511663
    41  H    8.914686   8.070000  10.855161  11.303913   9.853698
    42  H    7.461938   7.045387   8.070000   8.645301   9.867938
    43  H    7.000112   7.258410   8.236768   8.070000   8.419436
    44  H   10.289564  10.546953  13.405822  12.653998   8.070000
    45  H   11.331588  11.978897  14.547997  13.405821   8.236768
    46  H   10.968071  12.013317  13.922869  12.476039   7.866077
    47  H    9.443134  10.609692  11.978881  10.546935   7.258388
    48  H    8.400162   7.455708   9.470943  10.275292  10.493868
                   21         22         23         24         25
    21  H    0.000000
    22  H    2.483787   0.000000
    23  H    4.314058   2.481244   0.000000
    24  H   10.459675  11.061203   9.694162   0.000000
    25  S    9.645489  11.190078  11.580155  10.256369   0.000000
    26  S    7.921449   8.611215   8.627969   9.798037   4.208969
    27  C   11.107335  12.474391  12.349631   8.784145   2.812838
    28  C   11.586080  12.763927  12.365609   8.074289   4.069297
    29  C   11.097431  12.034469  11.456561   7.613938   4.531067
    30  C   10.084611  10.947382  10.467742   7.952697   3.986360
    31  C    8.053193   9.502326  10.475529  12.194991   3.548632
    32  C    7.729075   9.035993  10.217427  13.051030   4.928652
    33  C    7.246410   8.210721   9.305722  12.921434   5.667385
    34  C    7.138218   7.893206   8.635432  11.940507   5.324076
    35  C    7.461920   8.400165   8.914691  10.968073   4.052297
    36  C    7.964394   9.240355   9.891207  11.129831   2.910752
    37  C    8.564286   9.882267  10.274124  10.224132   1.736014
    38  C    8.634076   9.686132   9.751599   9.421851   2.609817
    39  C    9.494705  10.572744  10.416432   8.667049   2.653146
    40  C   10.093318  11.427101  11.438560   9.092118   1.750703
    41  H   11.672533  13.186497  13.172597   9.326056   3.023743
    42  H   11.670528  12.458458  11.672545   7.272514   5.616881
    43  H    9.867936  10.493882   9.853713   7.866095   4.818792
    44  H    8.645301  10.275306  11.303928  12.476051   3.290462
    45  H    8.070000   9.470957  10.855176  13.922878   5.630921
    46  H    7.272494   8.070000   9.326060  13.725415   6.744237
    47  H    7.045364   7.455706   8.070000  12.013313   6.218758
    48  H   12.458445  13.658814  13.186496   8.070000   4.954602
                   26         27         28         29         30
    26  S    0.000000
    27  C    5.324075   0.000000
    28  C    5.667383   1.393137   0.000000
    29  C    4.928650   2.438660   1.410304   0.000000
    30  C    3.548630   2.836748   2.434665   1.390489   0.000000
    31  C    3.986363   6.243327   7.315687   7.325105   6.265166
    32  C    4.531069   7.577436   8.590473   8.481093   7.325104
    33  C    4.069299   8.079606   8.924206   8.590474   7.315687
    34  C    2.812839   7.402719   8.079605   7.577436   6.243327
    35  C    1.750707   6.005094   6.683747   6.230315   4.927339
    36  C    2.653147   5.291740   6.214263   6.064435   4.928931
    37  C    2.609819   3.866376   4.798169   4.745868   3.733405
    38  C    1.736015   3.663120   4.214913   3.795840   2.579734
    39  C    2.910750   2.459994   2.803143   2.416826   1.409162
    40  C    4.052296   1.402623   2.403462   2.788553   2.444557
    41  H    6.218759   1.086803   2.160255   3.426128   3.923440
    42  H    5.630919   3.415181   2.163228   1.086273   2.146960
    43  H    3.290459   3.923903   3.423390   2.158387   1.087302
    44  H    4.818795   6.098632   7.300091   7.516385   6.605613
    45  H    5.616882   8.374699   9.462562   9.443696   8.331604
    46  H    4.954605   9.163416   9.990782   9.615298   8.316038
    47  H    3.023743   8.073242   8.608848   7.948859   6.571988
    48  H    6.744235   2.146405   1.086328   2.164633   3.412445
                   31         32         33         34         35
    31  C    0.000000
    32  C    1.390489   0.000000
    33  C    2.434666   1.410304   0.000000
    34  C    2.836750   2.438660   1.393137   0.000000
    35  C    2.444556   2.788550   2.403460   1.402622   0.000000
    36  C    1.409163   2.416825   2.803143   2.459994   1.424132
    37  C    2.579734   3.795839   4.214913   3.663121   2.336551
    38  C    3.733404   4.745867   4.798168   3.866376   2.477113
    39  C    4.928931   6.064435   6.214263   5.291739   3.905658
    40  C    4.927338   6.230314   6.683746   6.005093   4.610503
    41  H    6.571990   7.948861   8.608851   8.073244   6.699392
    42  H    8.331605   9.443696   9.462562   8.374698   7.072136
    43  H    6.605612   7.516383   7.300089   6.098630   4.902741
    44  H    1.087303   2.158387   3.423391   3.923905   3.432447
    45  H    2.146959   1.086273   2.163227   3.415181   3.874555
    46  H    3.412445   2.164633   1.086328   2.146407   3.389656
    47  H    3.923441   3.426129   2.160256   1.086802   2.169053
    48  H    8.316037   9.615296   9.990781   9.163414   7.766190
                   36         37         38         39         40
    36  C    0.000000
    37  C    1.429564   0.000000
    38  C    2.361669   1.390818   0.000000
    39  C    3.647999   2.361670   1.429564   0.000000
    40  C    3.905657   2.477112   2.336551   1.424133   0.000000
    41  H    5.807610   4.430653   4.504973   3.447304   2.169054
    42  H    7.033813   5.760478   4.709883   3.402697   3.874558
    43  H    5.210461   4.221724   2.886940   2.166846   3.432447
    44  H    2.166848   2.886941   4.221724   5.210463   4.902740
    45  H    3.402696   4.709882   5.760477   7.033812   7.072134
    46  H    3.889214   5.300025   5.835413   7.259688   7.766190
    47  H    3.447303   4.504972   4.430651   5.807607   6.699390
    48  H    7.259688   5.835412   5.300024   3.889214   3.389656
                   41         42         43         44         45
    41  H    0.000000
    42  H    4.314058   0.000000
    43  H    5.010647   2.483523   0.000000
    44  H    6.248351   8.568619   7.097914   0.000000
    45  H    8.645583  10.430619   8.568617   2.483523   0.000000
    46  H    9.694165  10.459676   8.231747   4.313194   2.483787
    47  H    8.827034   8.645580   6.248347   5.010648   4.314058
    48  H    2.481240   2.483789   4.313193   8.231747  10.459675
                   46         47         48
    46  H    0.000000
    47  H    2.481244   0.000000
    48  H   11.061203   9.694162   0.000000
 Stoichiometry    C28H16S4
 Framework group  C1[X(C28H16S4)]
 Deg. of freedom   138
 Full point group                 C1      NOp   1
 Largest Abelian subgroup         C1      NOp   1
 Largest concise Abelian subgroup C1      NOp   1
                         Standard orientation:                         
 ---------------------------------------------------------------------
 Center     Atomic      Atomic             Coordinates (Angstroms)
 Number     Number       Type             X           Y           Z
 ---------------------------------------------------------------------
      1         16           0        3.034610   -0.752363   -1.844754
      2         16           0        5.020306    1.007355    1.422633
      3          6           0        3.654990   -3.419425   -1.201354
      4          6           0        4.259287   -4.326881   -0.334071
      5          6           0        4.970491   -3.881479    0.799402
      6          6           0        5.048151   -2.526728    1.102846
      7          6           0        3.006760    2.781721   -1.524966
      8          6           0        3.084423    4.136472   -1.221523
      9          6           0        3.795634    4.581876   -0.088053
     10          6           0        4.399935    3.674419    0.779226
     11          6           0        4.341359    2.308104    0.467616
     12          6           0        3.602746    1.844100   -0.658129
     13          6           0        3.686233    0.419444   -0.742029
     14          6           0        4.368682   -0.164450    0.319906
     15          6           0        4.452170   -1.589106    0.236007
     16          6           0        3.713562   -2.053109   -0.889744
     17          1           0        3.107258   -3.766567   -2.073490
     18          1           0        5.435670   -4.608103    1.459414
     19          1           0        5.600007   -2.184218    1.974838
     20          1           0        2.454900    2.439212   -2.396956
     21          1           0        2.619237    4.863097   -1.881529
     22          1           0        3.842601    5.644227    0.134014
     23          1           0        4.947669    4.021559    1.651362
     24          1           0        4.212324   -5.389231   -0.556143
     25         16           0       -5.020308   -1.007356   -1.422631
     26         16           0       -3.034611    0.752361    1.844756
     27          6           0       -4.399927   -3.674418   -0.779231
     28          6           0       -3.795630   -4.581875    0.088052
     29          6           0       -3.084426   -4.136473    1.221525
     30          6           0       -3.006766   -2.781721    1.524969
     31          6           0       -5.048158    2.526728   -1.102843
     32          6           0       -4.970494    3.881479   -0.799400
     33          6           0       -4.259283    4.326882    0.334070
     34          6           0       -3.654982    3.419425    1.201349
     35          6           0       -3.713558    2.053111    0.889739
     36          6           0       -4.452171    1.589106   -0.236006
     37          6           0       -4.368685    0.164450   -0.319906
     38          6           0       -3.686235   -0.419443    0.742029
     39          6           0       -3.602747   -1.844099    0.658130
     40          6           0       -4.341355   -2.308102   -0.467621
     41          1           0       -4.947659   -4.021560   -1.651367
     42          1           0       -2.619247   -4.863097    1.881537
     43          1           0       -2.454910   -2.439212    2.396961
     44          1           0       -5.600017    2.184218   -1.974833
     45          1           0       -5.435680    4.608103   -1.459406
     46          1           0       -4.212316    5.389233    0.556137
     47          1           0       -3.107248    3.766565    2.073485
     48          1           0       -3.842594   -5.644225   -0.134020
 ---------------------------------------------------------------------
 Rotational constants (GHZ):           0.1240294           0.0581756           0.0439580
 Counterpoise: doing full-system calculation.
 Standard basis: 6-311G(d,p) (5D, 7F)
 There are   736 symmetry adapted cartesian basis functions of A   symmetry.
 There are   704 symmetry adapted basis functions of A   symmetry.
   704 basis functions,  1208 primitive gaussians,   736 cartesian basis functions
   124 alpha electrons      124 beta electrons
       nuclear repulsion energy      3298.5060946632 Hartrees.
 NAtoms=   48 NActive=   48 NUniq=   48 SFac= 1.00D+00 NAtFMM=   60 NAOKFM=F Big=F
 Integral buffers will be    131072 words long.
 Raffenetti 2 integral format.
 Two-electron integral symmetry is turned on.
 Nuclear repulsion after empirical dispersion term =     3298.4628098307 Hartrees.
 One-electron integrals computed using PRISM.
 NBasis=   704 RedAO= T EigKep=  1.75D-04  NBF=   704
 NBsUse=   704 1.00D-06 EigRej= -1.00D+00 NBFU=   704
 ExpMin= 7.71D-02 ExpMax= 9.34D+04 ExpMxC= 3.17D+03 IAcc=3 IRadAn=         5 AccDes= 0.00D+00
 Harris functional with IExCor=  402 and IRadAn=       5 diagonalized for initial guess.
 HarFok:  IExCor=  402 AccDes= 0.00D+00 IRadAn=         5 IDoV= 1 UseB2=F ITyADJ=14
 ICtDFT=  3500011 ScaDFX=  1.000000  1.000000  1.000000  1.000000
 FoFCou: FMM=F IPFlag=           0 FMFlag=      100000 FMFlg1=           0
         NFxFlg=           0 DoJE=T BraDBF=F KetDBF=T FulRan=T
         wScrn=  0.000000 ICntrl=       500 IOpCl=  0 I1Cent=   200000004 NGrid=           0
         NMat0=    1 NMatS0=      1 NMatT0=    0 NMatD0=    1 NMtDS0=    0 NMtDT0=    0
 Petite list used in FoFCou.
 Requested convergence on RMS density matrix=1.00D-08 within 128 cycles.
 Requested convergence on MAX density matrix=1.00D-06.
 Requested convergence on             energy=1.00D-06.
 No special actions if energy rises.
 Integral accuracy reduced to 1.0D-05 until final iterations.
 Initial convergence to 1.0D-05 achieved.  Increase integral accuracy.
 SCF Done:  E(RB3LYP) =  -2669.79519711     A.U. after   14 cycles
            NFock= 14  Conv=0.81D-08     -V/T= 2.0026

 **********************************************************************

            Population analysis using the SCF density.

 **********************************************************************

 Orbital symmetries:
       Occupied  (A) (A) (A) (A) (A) (A) (A) (A) (A) (A) (A) (A)
                 (A) (A) (A) (A) (A) (A) (A) (A) (A) (A) (A) (A)
                 (A) (A) (A) (A) (A) (A) (A) (A) (A) (A) (A) (A)
                 (A) (A) (A) (A) (A) (A) (A) (A) (A) (A) (A) (A)
                 (A) (A) (A) (A) (A) (A) (A) (A) (A) (A) (A) (A)
                 (A) (A) (A) (A) (A) (A) (A) (A) (A) (A) (A) (A)
                 (A) (A) (A) (A) (A) (A) (A) (A) (A) (A) (A) (A)
                 (A) (A) (A) (A) (A) (A) (A) (A) (A) (A) (A) (A)
                 (A) (A) (A) (A) (A) (A) (A) (A) (A) (A) (A) (A)
                 (A) (A) (A) (A) (A) (A) (A) (A) (A) (A) (A) (A)
                 (A) (A) (A) (A)
       Virtual   (A) (A) (A) (A) (A) (A) (A) (A) (A) (A) (A) (A)
                 (A) (A) (A) (A) (A) (A) (A) (A) (A) (A) (A) (A)
                 (A) (A) (A) (A) (A) (A) (A) (A) (A) (A) (A) (A)
                 (A) (A) (A) (A) (A) (A) (A) (A) (A) (A) (A) (A)
                 (A) (A) (A) (A) (A) (A) (A) (A) (A) (A) (A) (A)
                 (A) (A) (A) (A) (A) (A) (A) (A) (A) (A) (A) (A)
                 (A) (A) (A) (A) (A) (A) (A) (A) (A) (A) (A) (A)
                 (A) (A) (A) (A) (A) (A) (A) (A) (A) (A) (A) (A)
                 (A) (A) (A) (A) (A) (A) (A) (A) (A) (A) (A) (A)
                 (A) (A) (A) (A) (A) (A) (A) (A) (A) (A) (A) (A)
                 (A) (A) (A) (A) (A) (A) (A) (A) (A) (A) (A) (A)
                 (A) (A) (A) (A) (A) (A) (A) (A) (A) (A) (A) (A)
                 (A) (A) (A) (A) (A) (A) (A) (A) (A) (A) (A) (A)
                 (A) (A) (A) (A) (A) (A) (A) (A) (A) (A) (A) (A)
                 (A) (A) (A) (A) (A) (A) (A) (A) (A) (A) (A) (A)
                 (A) (A) (A) (A) (A) (A) (A) (A) (A) (A) (A) (A)
                 (A) (A) (A) (A) (A) (A) (A) (A) (A) (A) (A) (A)
                 (A) (A) (A) (A) (A) (A) (A) (A) (A) (A) (A) (A)
                 (A) (A) (A) (A) (A) (A) (A) (A) (A) (A) (A) (A)
                 (A) (A) (A) (A) (A) (A) (A) (A) (A) (A) (A) (A)
                 (A) (A) (A) (A) (A) (A) (A) (A) (A) (A) (A) (A)
                 (A) (A) (A) (A) (A) (A) (A) (A) (A) (A) (A) (A)
                 (A) (A) (A) (A) (A) (A) (A) (A) (A) (A) (A) (A)
                 (A) (A) (A) (A) (A) (A) (A) (A) (A) (A) (A) (A)
                 (A) (A) (A) (A) (A) (A) (A) (A) (A) (A) (A) (A)
                 (A) (A) (A) (A) (A) (A) (A) (A) (A) (A) (A) (A)
                 (A) (A) (A) (A) (A) (A) (A) (A) (A) (A) (A) (A)
                 (A) (A) (A) (A) (A) (A) (A) (A) (A) (A) (A) (A)
                 (A) (A) (A) (A) (A) (A) (A) (A) (A) (A) (A) (A)
                 (A) (A) (A) (A) (A) (A) (A) (A) (A) (A) (A) (A)
                 (A) (A) (A) (A) (A) (A) (A) (A) (A) (A) (A) (A)
                 (A) (A) (A) (A) (A) (A) (A) (A) (A) (A) (A) (A)
                 (A) (A) (A) (A) (A) (A) (A) (A) (A) (A) (A) (A)
                 (A) (A) (A) (A) (A) (A) (A) (A) (A) (A) (A) (A)
                 (A) (A) (A) (A) (A) (A) (A) (A) (A) (A) (A) (A)
                 (A) (A) (A) (A) (A) (A) (A) (A) (A) (A) (A) (A)
                 (A) (A) (A) (A) (A) (A) (A) (A) (A) (A) (A) (A)
                 (A) (A) (A) (A) (A) (A) (A) (A) (A) (A) (A) (A)
                 (A) (A) (A) (A) (A) (A) (A) (A) (A) (A) (A) (A)
                 (A) (A) (A) (A) (A) (A) (A) (A) (A) (A) (A) (A)
                 (A) (A) (A) (A) (A) (A) (A) (A) (A) (A) (A) (A)
                 (A) (A) (A) (A) (A) (A) (A) (A) (A) (A) (A) (A)
                 (A) (A) (A) (A) (A) (A) (A) (A) (A) (A) (A) (A)
                 (A) (A) (A) (A) (A) (A) (A) (A) (A) (A) (A) (A)
                 (A) (A) (A) (A) (A) (A) (A) (A) (A) (A) (A) (A)
                 (A) (A) (A) (A) (A) (A) (A) (A) (A) (A) (A) (A)
                 (A) (A) (A) (A) (A) (A) (A) (A) (A) (A) (A) (A)
                 (A) (A) (A) (A) (A) (A) (A) (A) (A) (A) (A) (A)
                 (A) (A) (A) (A)
 The electronic state is 1-A.
 Alpha  occ. eigenvalues --  -88.87963 -88.87963 -88.87918 -88.87918 -10.21630
 Alpha  occ. eigenvalues --  -10.21630 -10.21615 -10.21615 -10.21134 -10.21134
 Alpha  occ. eigenvalues --  -10.21079 -10.21079 -10.19886 -10.19886 -10.19877
 Alpha  occ. eigenvalues --  -10.19877 -10.18889 -10.18889 -10.18876 -10.18876
 Alpha  occ. eigenvalues --  -10.18598 -10.18598 -10.18562 -10.18562 -10.18284
 Alpha  occ. eigenvalues --  -10.18284 -10.18282 -10.18282 -10.18151 -10.18151
 Alpha  occ. eigenvalues --  -10.18123 -10.18123  -7.96618  -7.96618  -7.96571
 Alpha  occ. eigenvalues --   -7.96571  -5.92948  -5.92948  -5.92901  -5.92901
 Alpha  occ. eigenvalues --   -5.92589  -5.92589  -5.92541  -5.92541  -5.92116
 Alpha  occ. eigenvalues --   -5.92116  -5.92068  -5.92068  -0.92134  -0.92134
 Alpha  occ. eigenvalues --   -0.88052  -0.88052  -0.83982  -0.83982  -0.81932
 Alpha  occ. eigenvalues --   -0.81932  -0.77601  -0.77601  -0.77199  -0.77199
 Alpha  occ. eigenvalues --   -0.73797  -0.73797  -0.71969  -0.71969  -0.69852
 Alpha  occ. eigenvalues --   -0.69852  -0.64451  -0.64451  -0.61377  -0.61377
 Alpha  occ. eigenvalues --   -0.59213  -0.59213  -0.58309  -0.58309  -0.56827
 Alpha  occ. eigenvalues --   -0.56827  -0.51269  -0.51269  -0.50061  -0.50061
 Alpha  occ. eigenvalues --   -0.48942  -0.48942  -0.47343  -0.47343  -0.45499
 Alpha  occ. eigenvalues --   -0.45499  -0.45342  -0.45342  -0.43836  -0.43836
 Alpha  occ. eigenvalues --   -0.43303  -0.43303  -0.42956  -0.42954  -0.40675
 Alpha  occ. eigenvalues --   -0.40675  -0.40346  -0.40346  -0.39027  -0.39026
 Alpha  occ. eigenvalues --   -0.37136  -0.37136  -0.36480  -0.36480  -0.36046
 Alpha  occ. eigenvalues --   -0.36046  -0.34595  -0.34595  -0.34396  -0.34396
 Alpha  occ. eigenvalues --   -0.34388  -0.34387  -0.32547  -0.32541  -0.28716
 Alpha  occ. eigenvalues --   -0.28714  -0.28050  -0.28050  -0.24817  -0.24816
 Alpha  occ. eigenvalues --   -0.22712  -0.22709  -0.20979  -0.20973
 Alpha virt. eigenvalues --   -0.05476  -0.05474  -0.02210  -0.02186  -0.01444
 Alpha virt. eigenvalues --   -0.01441  -0.00376  -0.00356   0.00678   0.00685
 Alpha virt. eigenvalues --    0.01982   0.01988   0.04166   0.04167   0.04290
 Alpha virt. eigenvalues --    0.04304   0.05065   0.05069   0.06390   0.06408
 Alpha virt. eigenvalues --    0.07512   0.07570   0.08023   0.08044   0.08503
 Alpha virt. eigenvalues --    0.08518   0.11411   0.11412   0.12283   0.12335
 Alpha virt. eigenvalues --    0.13019   0.13159   0.13246   0.13277   0.13330
 Alpha virt. eigenvalues --    0.13435   0.14149   0.14172   0.16002   0.16035
 Alpha virt. eigenvalues --    0.16305   0.16343   0.17540   0.18180   0.19369
 Alpha virt. eigenvalues --    0.19834   0.20829   0.20835   0.23159   0.23162
 Alpha virt. eigenvalues --    0.23312   0.23321   0.24474   0.24489   0.27038
 Alpha virt. eigenvalues --    0.27054   0.27708   0.27713   0.27824   0.27828
 Alpha virt. eigenvalues --    0.28577   0.28580   0.29144   0.29145   0.29617
 Alpha virt. eigenvalues --    0.29627   0.33027   0.33041   0.34616   0.34619
 Alpha virt. eigenvalues --    0.35991   0.35995   0.37295   0.37309   0.37598
 Alpha virt. eigenvalues --    0.37605   0.38366   0.38379   0.38947   0.38952
 Alpha virt. eigenvalues --    0.39030   0.39041   0.39918   0.39936   0.40280
 Alpha virt. eigenvalues --    0.40284   0.40759   0.40769   0.41789   0.41792
 Alpha virt. eigenvalues --    0.42244   0.42273   0.42668   0.42674   0.42817
 Alpha virt. eigenvalues --    0.42818   0.44264   0.44267   0.44604   0.44625
 Alpha virt. eigenvalues --    0.44747   0.44749   0.45540   0.45544   0.45724
 Alpha virt. eigenvalues --    0.45815   0.45955   0.45969   0.46012   0.46012
 Alpha virt. eigenvalues --    0.48537   0.48543   0.49455   0.49461   0.49612
 Alpha virt. eigenvalues --    0.49626   0.50903   0.50939   0.51760   0.51780
 Alpha virt. eigenvalues --    0.53405   0.53406   0.54960   0.54966   0.56450
 Alpha virt. eigenvalues --    0.56460   0.57306   0.57316   0.58202   0.58210
 Alpha virt. eigenvalues --    0.58831   0.58847   0.59229   0.59241   0.59570
 Alpha virt. eigenvalues --    0.59575   0.60051   0.60052   0.60487   0.60491
 Alpha virt. eigenvalues --    0.60572   0.60577   0.61788   0.61799   0.62199
 Alpha virt. eigenvalues --    0.62207   0.63767   0.63808   0.63823   0.63861
 Alpha virt. eigenvalues --    0.64801   0.64807   0.66251   0.66269   0.69733
 Alpha virt. eigenvalues --    0.69744   0.70358   0.70389   0.72024   0.72028
 Alpha virt. eigenvalues --    0.72403   0.72404   0.72925   0.72927   0.73307
 Alpha virt. eigenvalues --    0.73307   0.73801   0.73810   0.74779   0.74820
 Alpha virt. eigenvalues --    0.75948   0.75959   0.76717   0.76765   0.77661
 Alpha virt. eigenvalues --    0.77668   0.79001   0.79085   0.80297   0.80299
 Alpha virt. eigenvalues --    0.80328   0.80356   0.81999   0.82008   0.83381
 Alpha virt. eigenvalues --    0.83386   0.84365   0.84372   0.84813   0.84828
 Alpha virt. eigenvalues --    0.85910   0.85922   0.86134   0.86179   0.88436
 Alpha virt. eigenvalues --    0.88560   0.89070   0.89075   0.90448   0.90454
 Alpha virt. eigenvalues --    0.90904   0.90925   0.92431   0.92448   0.93626
 Alpha virt. eigenvalues --    0.93668   0.96124   0.96148   0.96886   0.96897
 Alpha virt. eigenvalues --    0.96909   0.96910   0.98850   0.98856   0.99559
 Alpha virt. eigenvalues --    0.99575   1.00424   1.00441   1.01838   1.01843
 Alpha virt. eigenvalues --    1.02993   1.02999   1.06214   1.06217   1.06532
 Alpha virt. eigenvalues --    1.06547   1.07695   1.07697   1.09069   1.09090
 Alpha virt. eigenvalues --    1.09109   1.09135   1.09516   1.09519   1.10884
 Alpha virt. eigenvalues --    1.10886   1.11436   1.11441   1.15897   1.15910
 Alpha virt. eigenvalues --    1.18417   1.18444   1.20423   1.20438   1.21984
 Alpha virt. eigenvalues --    1.21992   1.22467   1.22488   1.24702   1.24720
 Alpha virt. eigenvalues --    1.28110   1.28129   1.28690   1.28779   1.29119
 Alpha virt. eigenvalues --    1.29120   1.34947   1.34964   1.38856   1.38862
 Alpha virt. eigenvalues --    1.40728   1.40734   1.41639   1.41640   1.42937
 Alpha virt. eigenvalues --    1.42938   1.44346   1.44352   1.44967   1.44967
 Alpha virt. eigenvalues --    1.47298   1.47298   1.47926   1.47928   1.49096
 Alpha virt. eigenvalues --    1.49096   1.52539   1.52539   1.53999   1.54006
 Alpha virt. eigenvalues --    1.54105   1.54108   1.56081   1.56085   1.56314
 Alpha virt. eigenvalues --    1.56556   1.58049   1.58057   1.59031   1.59060
 Alpha virt. eigenvalues --    1.59793   1.59798   1.60617   1.60762   1.61167
 Alpha virt. eigenvalues --    1.61171   1.61525   1.61531   1.62311   1.62337
 Alpha virt. eigenvalues --    1.63143   1.63170   1.67223   1.67324   1.69450
 Alpha virt. eigenvalues --    1.69451   1.70511   1.70557   1.72105   1.72105
 Alpha virt. eigenvalues --    1.73012   1.73012   1.73536   1.73538   1.74717
 Alpha virt. eigenvalues --    1.74719   1.75775   1.75775   1.80349   1.80377
 Alpha virt. eigenvalues --    1.80592   1.80608   1.81715   1.81729   1.82504
 Alpha virt. eigenvalues --    1.82505   1.83410   1.83413   1.83960   1.83977
 Alpha virt. eigenvalues --    1.84388   1.84388   1.86848   1.86849   1.88930
 Alpha virt. eigenvalues --    1.88935   1.89517   1.89518   1.89590   1.89590
 Alpha virt. eigenvalues --    1.89981   1.89985   1.90964   1.90989   1.91080
 Alpha virt. eigenvalues --    1.91083   1.93813   1.93831   1.93956   1.93958
 Alpha virt. eigenvalues --    1.94038   1.94056   1.96300   1.96303   1.96343
 Alpha virt. eigenvalues --    1.96349   1.99030   1.99060   1.99642   1.99642
 Alpha virt. eigenvalues --    2.00208   2.00211   2.01268   2.01273   2.02598
 Alpha virt. eigenvalues --    2.02601   2.03595   2.03601   2.06666   2.06670
 Alpha virt. eigenvalues --    2.08199   2.08200   2.11096   2.11121   2.12169
 Alpha virt. eigenvalues --    2.12169   2.14267   2.14267   2.22579   2.22588
 Alpha virt. eigenvalues --    2.25310   2.25311   2.26457   2.26457   2.26758
 Alpha virt. eigenvalues --    2.26765   2.27790   2.27804   2.32805   2.32806
 Alpha virt. eigenvalues --    2.32954   2.32955   2.33027   2.33030   2.33431
 Alpha virt. eigenvalues --    2.33434   2.34154   2.34155   2.35912   2.35914
 Alpha virt. eigenvalues --    2.37613   2.37616   2.40622   2.40625   2.47993
 Alpha virt. eigenvalues --    2.47999   2.52144   2.52146   2.53711   2.53728
 Alpha virt. eigenvalues --    2.55635   2.55651   2.56494   2.56495   2.57410
 Alpha virt. eigenvalues --    2.57411   2.60011   2.60012   2.60353   2.60353
 Alpha virt. eigenvalues --    2.61535   2.61543   2.61747   2.61750   2.62305
 Alpha virt. eigenvalues --    2.62306   2.63855   2.63857   2.64599   2.64600
 Alpha virt. eigenvalues --    2.65274   2.65276   2.66047   2.66047   2.69054
 Alpha virt. eigenvalues --    2.69063   2.69078   2.69079   2.69145   2.69151
 Alpha virt. eigenvalues --    2.70540   2.70592   2.71839   2.71848   2.73680
 Alpha virt. eigenvalues --    2.73685   2.77517   2.77521   2.80140   2.80141
 Alpha virt. eigenvalues --    2.81500   2.81501   2.81795   2.81806   2.82351
 Alpha virt. eigenvalues --    2.82373   2.83328   2.83331   2.83737   2.83738
 Alpha virt. eigenvalues --    2.87816   2.87816   2.91864   2.91865   2.92526
 Alpha virt. eigenvalues --    2.92555   2.97181   2.97191   3.04130   3.04139
 Alpha virt. eigenvalues --    3.04454   3.04457   3.07451   3.07451   3.10536
 Alpha virt. eigenvalues --    3.10536   3.15663   3.15672   3.17340   3.17348
 Alpha virt. eigenvalues --    3.23526   3.23531   3.24426   3.24430   3.29824
 Alpha virt. eigenvalues --    3.29824   3.30426   3.30427   3.32058   3.32059
 Alpha virt. eigenvalues --    3.34550   3.34551   3.38876   3.38883   3.42786
 Alpha virt. eigenvalues --    3.42787   3.44738   3.44743   3.45921   3.45928
 Alpha virt. eigenvalues --    3.50654   3.50655   3.54715   3.54718   3.55979
 Alpha virt. eigenvalues --    3.55981   3.62809   3.62811   3.76124   3.76127
 Alpha virt. eigenvalues --    3.82350   3.82358   3.98730   3.98732   4.00574
 Alpha virt. eigenvalues --    4.00575   4.01742   4.01742   4.03938   4.03941
 Alpha virt. eigenvalues --    4.11637   4.11641   4.11994   4.11995   4.19941
 Alpha virt. eigenvalues --    4.19945   4.55107   4.55114   4.79853   4.79853
 Alpha virt. eigenvalues --    4.79980   4.79981   7.81287   7.81300   7.84124
 Alpha virt. eigenvalues --    7.84127  17.19641  17.19965  17.21164  17.21351
 Alpha virt. eigenvalues --   17.43881  17.43898  17.51360  17.51368  17.52457
 Alpha virt. eigenvalues --   17.52466  17.53549  17.53559  23.35527  23.35539
 Alpha virt. eigenvalues --   23.53965  23.53967  23.69079  23.69081  23.85810
 Alpha virt. eigenvalues --   23.85812  23.85977  23.85979  23.90310  23.90311
 Alpha virt. eigenvalues --   23.92240  23.92241  23.98292  23.98292  24.01271
 Alpha virt. eigenvalues --   24.01272  24.03904  24.03905  24.07436  24.07436
 Alpha virt. eigenvalues --   24.07558  24.07558  24.14809  24.14810  24.14920
 Alpha virt. eigenvalues --   24.14921 188.92682 188.92699 188.95559 188.95563
          Condensed to atoms (all electrons):
               1          2          3          4          5          6
     1  S   15.364221   0.009492  -0.061381   0.005895  -0.000116   0.009405
     2  S    0.009492  15.373202  -0.000171  -0.000039   0.000327   0.002359
     3  C   -0.061381  -0.000171   4.861294   0.512325  -0.040416  -0.053867
     4  C    0.005895  -0.000039   0.512325   4.880802   0.492224  -0.051624
     5  C   -0.000116   0.000327  -0.040416   0.492224   4.880050   0.511265
     6  C    0.009405   0.002359  -0.053867  -0.051624   0.511265   4.876971
     7  C    0.002409   0.009398  -0.000000   0.000000  -0.000000  -0.000001
     8  C    0.000327  -0.000100   0.000000  -0.000000   0.000000  -0.000000
     9  C   -0.000038   0.005897  -0.000000   0.000000  -0.000000   0.000000
    10  C   -0.000171  -0.061565   0.000000  -0.000000   0.000000  -0.000001
    11  C    0.008612   0.305999   0.000034  -0.000002   0.000002  -0.000301
    12  C   -0.070498  -0.088287  -0.000510   0.000027  -0.000018   0.000096
    13  C    0.317626  -0.092110  -0.000513  -0.000021  -0.000615   0.011575
    14  C   -0.092074   0.316248   0.017368  -0.001061   0.013357  -0.089604
    15  C   -0.088038  -0.070709   0.007045  -0.050255  -0.029710   0.485493
    16  C    0.307205   0.008693   0.443290  -0.047762  -0.054805  -0.044858
    17  H   -0.003166   0.000022   0.419332  -0.037166   0.007337  -0.000565
    18  H    0.000109  -0.000002   0.007018  -0.041970   0.411163  -0.038204
    19  H   -0.000638   0.003292  -0.000914   0.007567  -0.039669   0.419717
    20  H    0.003270  -0.000642  -0.000003   0.000000  -0.000000   0.000000
    21  H   -0.000002   0.000110   0.000000  -0.000000  -0.000000   0.000000
    22  H   -0.000003  -0.000372  -0.000000   0.000000   0.000000   0.000000
    23  H    0.000023  -0.003206   0.000000  -0.000000   0.000000  -0.000000
    24  H   -0.000370  -0.000003  -0.041210   0.413857  -0.042879   0.007642
    25  S    0.000001   0.000000  -0.000000  -0.000000   0.000000   0.000000
    26  S    0.000009   0.000001  -0.000000   0.000000   0.000000   0.000000
    27  C   -0.000000  -0.000000   0.000000   0.000000  -0.000000  -0.000000
    28  C    0.000000   0.000000  -0.000000  -0.000000   0.000000  -0.000000
    29  C    0.000000  -0.000000   0.000000  -0.000000   0.000000   0.000000
    30  C    0.000001  -0.000000  -0.000000  -0.000000  -0.000000  -0.000000
    31  C    0.000000   0.000000  -0.000000  -0.000000   0.000000   0.000000
    32  C    0.000000   0.000000   0.000000   0.000000  -0.000000   0.000000
    33  C    0.000000  -0.000000  -0.000000  -0.000000   0.000000  -0.000000
    34  C   -0.000000  -0.000000  -0.000000  -0.000000   0.000000  -0.000000
    35  C   -0.000000  -0.000000   0.000000   0.000000  -0.000000  -0.000000
    36  C   -0.000000  -0.000000  -0.000000  -0.000000   0.000000  -0.000000
    37  C   -0.000000  -0.000000   0.000000  -0.000000   0.000000  -0.000000
    38  C   -0.000000  -0.000000   0.000000   0.000000  -0.000000  -0.000000
    39  C    0.000001   0.000000   0.000000   0.000000  -0.000000  -0.000000
    40  C    0.000000   0.000000  -0.000000  -0.000000   0.000000   0.000000
    41  H   -0.000000  -0.000000   0.000000   0.000000   0.000000  -0.000000
    42  H   -0.000000  -0.000000   0.000000   0.000000   0.000000  -0.000000
    43  H    0.000001   0.000000  -0.000000  -0.000000   0.000000   0.000000
    44  H    0.000000   0.000000  -0.000000  -0.000000   0.000000   0.000000
    45  H   -0.000000  -0.000000   0.000000   0.000000  -0.000000  -0.000000
    46  H    0.000000  -0.000000  -0.000000  -0.000000   0.000000  -0.000000
    47  H    0.000000   0.000000  -0.000000   0.000000   0.000000  -0.000000
    48  H    0.000000   0.000000  -0.000000  -0.000000   0.000000   0.000000
               7          8          9         10         11         12
     1  S    0.002409   0.000327  -0.000038  -0.000171   0.008612  -0.070498
     2  S    0.009398  -0.000100   0.005897  -0.061565   0.305999  -0.088287
     3  C   -0.000000   0.000000  -0.000000   0.000000   0.000034  -0.000510
     4  C    0.000000  -0.000000   0.000000  -0.000000  -0.000002   0.000027
     5  C   -0.000000   0.000000  -0.000000   0.000000   0.000002  -0.000018
     6  C   -0.000001  -0.000000   0.000000  -0.000001  -0.000301   0.000096
     7  C    4.872816   0.511931  -0.051813  -0.053509  -0.045451   0.486678
     8  C    0.511931   4.878183   0.492422  -0.040660  -0.054647  -0.030029
     9  C   -0.051813   0.492422   4.880787   0.512496  -0.048023  -0.049897
    10  C   -0.053509  -0.040660   0.512496   4.862646   0.443542   0.006430
    11  C   -0.045451  -0.054647  -0.048023   0.443542   5.390596   0.412386
    12  C    0.486678  -0.030029  -0.049897   0.006430   0.412386   4.947959
    13  C   -0.088836   0.013309  -0.001029   0.017235  -0.096419   0.393331
    14  C    0.011520  -0.000614  -0.000023  -0.000471  -0.086778  -0.014511
    15  C    0.000093  -0.000018   0.000027  -0.000512   0.003430   0.021067
    16  C   -0.000302   0.000002  -0.000002   0.000033  -0.000008   0.003482
    17  H   -0.000000   0.000000  -0.000000   0.000000   0.000001  -0.000009
    18  H    0.000000  -0.000000  -0.000000   0.000000  -0.000000  -0.000000
    19  H    0.000000  -0.000000   0.000000  -0.000003  -0.000108   0.000013
    20  H    0.419485  -0.039254   0.007524  -0.000894   0.008905  -0.045403
    21  H   -0.037839   0.411178  -0.042087   0.007015   0.000278   0.007539
    22  H    0.007642  -0.042773   0.413856  -0.041402   0.008903  -0.000338
    23  H   -0.000573   0.007352  -0.037209   0.419504  -0.047567   0.007232
    24  H    0.000000   0.000000   0.000000  -0.000000  -0.000000  -0.000000
    25  S   -0.000000  -0.000000   0.000000  -0.000000   0.000000   0.000000
    26  S    0.000001   0.000000   0.000000  -0.000000   0.000000   0.000001
    27  C   -0.000000  -0.000000   0.000000   0.000000   0.000000  -0.000000
    28  C    0.000000   0.000000  -0.000000   0.000000   0.000000  -0.000000
    29  C    0.000000  -0.000000   0.000000  -0.000000  -0.000000   0.000000
    30  C    0.000000   0.000000   0.000000  -0.000000  -0.000000   0.000000
    31  C   -0.000000   0.000000  -0.000000  -0.000000   0.000000  -0.000000
    32  C   -0.000000   0.000000   0.000000  -0.000000   0.000000  -0.000000
    33  C   -0.000000  -0.000000  -0.000000   0.000000  -0.000000   0.000000
    34  C   -0.000000   0.000000  -0.000000   0.000000  -0.000000   0.000000
    35  C   -0.000000  -0.000000   0.000000   0.000000   0.000000  -0.000000
    36  C   -0.000000  -0.000000   0.000000   0.000000  -0.000000  -0.000000
    37  C    0.000000   0.000000  -0.000000   0.000000   0.000000   0.000000
    38  C   -0.000000   0.000000  -0.000000   0.000000  -0.000000   0.000000
    39  C    0.000000   0.000000  -0.000000  -0.000000  -0.000000  -0.000000
    40  C   -0.000000  -0.000000   0.000000   0.000000  -0.000000  -0.000000
    41  H    0.000000   0.000000   0.000000  -0.000000  -0.000000   0.000000
    42  H   -0.000000  -0.000000   0.000000  -0.000000  -0.000000   0.000000
    43  H    0.000000   0.000000  -0.000000  -0.000000   0.000000  -0.000000
    44  H    0.000000   0.000000  -0.000000  -0.000000   0.000000   0.000000
    45  H   -0.000000   0.000000   0.000000   0.000000  -0.000000  -0.000000
    46  H   -0.000000  -0.000000  -0.000000  -0.000000   0.000000   0.000000
    47  H    0.000000   0.000000   0.000000   0.000000  -0.000000  -0.000000
    48  H    0.000000   0.000000  -0.000000   0.000000   0.000000  -0.000000
              13         14         15         16         17         18
     1  S    0.317626  -0.092074  -0.088038   0.307205  -0.003166   0.000109
     2  S   -0.092110   0.316248  -0.070709   0.008693   0.000022  -0.000002
     3  C   -0.000513   0.017368   0.007045   0.443290   0.419332   0.007018
     4  C   -0.000021  -0.001061  -0.050255  -0.047762  -0.037166  -0.041970
     5  C   -0.000615   0.013357  -0.029710  -0.054805   0.007337   0.411163
     6  C    0.011575  -0.089604   0.485493  -0.044858  -0.000565  -0.038204
     7  C   -0.088836   0.011520   0.000093  -0.000302  -0.000000   0.000000
     8  C    0.013309  -0.000614  -0.000018   0.000002   0.000000  -0.000000
     9  C   -0.001029  -0.000023   0.000027  -0.000002  -0.000000  -0.000000
    10  C    0.017235  -0.000471  -0.000512   0.000033   0.000000   0.000000
    11  C   -0.096419  -0.086778   0.003430  -0.000008   0.000001  -0.000000
    12  C    0.393331  -0.014511   0.021067   0.003482  -0.000009  -0.000000
    13  C    5.456437   0.363403  -0.014515  -0.086319  -0.000117   0.000016
    14  C    0.363403   5.460479   0.392896  -0.097196  -0.000333  -0.000469
    15  C   -0.014515   0.392896   4.951035   0.411652   0.007242   0.007572
    16  C   -0.086319  -0.097196   0.411652   5.388893  -0.047121   0.000276
    17  H   -0.000117  -0.000333   0.007242  -0.047121   0.564640  -0.000321
    18  H    0.000016  -0.000469   0.007572   0.000276  -0.000321   0.573009
    19  H    0.000092  -0.012046  -0.045780   0.008953   0.000064  -0.007675
    20  H   -0.011924   0.000094   0.000012  -0.000107   0.000000   0.000000
    21  H   -0.000470   0.000016  -0.000000  -0.000000  -0.000000   0.000000
    22  H   -0.000002   0.000010  -0.000000  -0.000000   0.000000   0.000000
    23  H   -0.000334  -0.000117  -0.000009   0.000001   0.000000  -0.000000
    24  H    0.000010  -0.000002  -0.000338   0.008881  -0.007753  -0.007484
    25  S   -0.000000  -0.000000  -0.000000  -0.000000   0.000000  -0.000000
    26  S   -0.000000  -0.000000  -0.000000  -0.000000   0.000000  -0.000000
    27  C    0.000000   0.000000   0.000000   0.000000   0.000000   0.000000
    28  C   -0.000000  -0.000000   0.000000   0.000000   0.000000   0.000000
    29  C    0.000000   0.000000  -0.000000  -0.000000   0.000000   0.000000
    30  C   -0.000000   0.000000  -0.000000  -0.000000   0.000000  -0.000000
    31  C   -0.000000  -0.000000  -0.000000  -0.000000  -0.000000  -0.000000
    32  C   -0.000000   0.000000   0.000000  -0.000000   0.000000  -0.000000
    33  C    0.000000  -0.000000  -0.000000   0.000000   0.000000   0.000000
    34  C    0.000000   0.000000  -0.000000   0.000000  -0.000000   0.000000
    35  C   -0.000000   0.000000   0.000000  -0.000000  -0.000000  -0.000000
    36  C    0.000000   0.000000  -0.000000   0.000000  -0.000000   0.000000
    37  C    0.000000  -0.000000   0.000000   0.000000   0.000000   0.000000
    38  C    0.000000   0.000000   0.000000  -0.000000  -0.000000  -0.000000
    39  C    0.000000   0.000000  -0.000000  -0.000000  -0.000000  -0.000000
    40  C   -0.000000   0.000000  -0.000000   0.000000  -0.000000  -0.000000
    41  H    0.000000   0.000000  -0.000000  -0.000000  -0.000000  -0.000000
    42  H    0.000000   0.000000  -0.000000  -0.000000   0.000000  -0.000000
    43  H   -0.000000  -0.000000  -0.000000   0.000000   0.000000   0.000000
    44  H   -0.000000  -0.000000  -0.000000   0.000000   0.000000   0.000000
    45  H   -0.000000   0.000000   0.000000  -0.000000  -0.000000  -0.000000
    46  H    0.000000  -0.000000  -0.000000   0.000000  -0.000000   0.000000
    47  H   -0.000000   0.000000  -0.000000  -0.000000   0.000000  -0.000000
    48  H   -0.000000  -0.000000   0.000000   0.000000   0.000000   0.000000
              19         20         21         22         23         24
     1  S   -0.000638   0.003270  -0.000002  -0.000003   0.000023  -0.000370
     2  S    0.003292  -0.000642   0.000110  -0.000372  -0.003206  -0.000003
     3  C   -0.000914  -0.000003   0.000000  -0.000000   0.000000  -0.041210
     4  C    0.007567   0.000000  -0.000000   0.000000  -0.000000   0.413857
     5  C   -0.039669  -0.000000  -0.000000   0.000000   0.000000  -0.042879
     6  C    0.419717   0.000000   0.000000   0.000000  -0.000000   0.007642
     7  C    0.000000   0.419485  -0.037839   0.007642  -0.000573   0.000000
     8  C   -0.000000  -0.039254   0.411178  -0.042773   0.007352   0.000000
     9  C    0.000000   0.007524  -0.042087   0.413856  -0.037209   0.000000
    10  C   -0.000003  -0.000894   0.007015  -0.041402   0.419504  -0.000000
    11  C   -0.000108   0.008905   0.000278   0.008903  -0.047567  -0.000000
    12  C    0.000013  -0.045403   0.007539  -0.000338   0.007232  -0.000000
    13  C    0.000092  -0.011924  -0.000470  -0.000002  -0.000334   0.000010
    14  C   -0.012046   0.000094   0.000016   0.000010  -0.000117  -0.000002
    15  C   -0.045780   0.000012  -0.000000  -0.000000  -0.000009  -0.000338
    16  C    0.008953  -0.000107  -0.000000  -0.000000   0.000001   0.008881
    17  H    0.000064   0.000000  -0.000000   0.000000   0.000000  -0.007753
    18  H   -0.007675   0.000000   0.000000   0.000000  -0.000000  -0.007484
    19  H    0.572208   0.000000   0.000000   0.000000   0.000000  -0.000309
    20  H    0.000000   0.569778  -0.007630  -0.000307   0.000064   0.000000
    21  H    0.000000  -0.007630   0.572154  -0.007477  -0.000322   0.000000
    22  H    0.000000  -0.000307  -0.007477   0.571908  -0.007787  -0.000000
    23  H    0.000000   0.000064  -0.000322  -0.007787   0.566126   0.000000
    24  H   -0.000309   0.000000   0.000000  -0.000000   0.000000   0.571700
    25  S    0.000000   0.000000  -0.000000   0.000000  -0.000000  -0.000000
    26  S    0.000000   0.000001  -0.000000   0.000000  -0.000000   0.000000
    27  C   -0.000000  -0.000000  -0.000000   0.000000  -0.000000  -0.000000
    28  C   -0.000000  -0.000000   0.000000  -0.000000   0.000000  -0.000000
    29  C    0.000000   0.000000  -0.000000   0.000000   0.000000  -0.000000
    30  C    0.000000   0.000000  -0.000000   0.000000   0.000000  -0.000000
    31  C    0.000000   0.000000  -0.000000   0.000000  -0.000000  -0.000000
    32  C    0.000000   0.000000   0.000000   0.000000   0.000000   0.000000
    33  C   -0.000000  -0.000000   0.000000  -0.000000   0.000000  -0.000000
    34  C   -0.000000  -0.000000   0.000000  -0.000000   0.000000  -0.000000
    35  C    0.000000   0.000000  -0.000000   0.000000  -0.000000   0.000000
    36  C   -0.000000  -0.000000  -0.000000   0.000000  -0.000000  -0.000000
    37  C   -0.000000  -0.000000   0.000000  -0.000000   0.000000  -0.000000
    38  C   -0.000000  -0.000000   0.000000  -0.000000   0.000000   0.000000
    39  C    0.000000  -0.000000   0.000000  -0.000000   0.000000   0.000000
    40  C    0.000000   0.000000  -0.000000   0.000000  -0.000000   0.000000
    41  H    0.000000   0.000000  -0.000000  -0.000000   0.000000  -0.000000
    42  H    0.000000  -0.000000  -0.000000   0.000000  -0.000000   0.000000
    43  H   -0.000000   0.000000  -0.000000  -0.000000   0.000000  -0.000000
    44  H   -0.000000  -0.000000   0.000000  -0.000000   0.000000  -0.000000
    45  H    0.000000   0.000000  -0.000000   0.000000  -0.000000   0.000000
    46  H   -0.000000  -0.000000   0.000000  -0.000000  -0.000000   0.000000
    47  H    0.000000   0.000000   0.000000   0.000000  -0.000000  -0.000000
    48  H   -0.000000  -0.000000   0.000000  -0.000000  -0.000000  -0.000000
              25         26         27         28         29         30
     1  S    0.000001   0.000009  -0.000000   0.000000   0.000000   0.000001
     2  S    0.000000   0.000001  -0.000000   0.000000  -0.000000  -0.000000
     3  C   -0.000000  -0.000000   0.000000  -0.000000   0.000000  -0.000000
     4  C   -0.000000   0.000000   0.000000  -0.000000  -0.000000  -0.000000
     5  C    0.000000   0.000000  -0.000000   0.000000   0.000000  -0.000000
     6  C    0.000000   0.000000  -0.000000  -0.000000   0.000000  -0.000000
     7  C   -0.000000   0.000001  -0.000000   0.000000   0.000000   0.000000
     8  C   -0.000000   0.000000  -0.000000   0.000000  -0.000000   0.000000
     9  C    0.000000   0.000000   0.000000  -0.000000   0.000000   0.000000
    10  C   -0.000000  -0.000000   0.000000   0.000000  -0.000000  -0.000000
    11  C    0.000000   0.000000   0.000000   0.000000  -0.000000  -0.000000
    12  C    0.000000   0.000001  -0.000000  -0.000000   0.000000   0.000000
    13  C   -0.000000  -0.000000   0.000000  -0.000000   0.000000  -0.000000
    14  C   -0.000000  -0.000000   0.000000  -0.000000   0.000000   0.000000
    15  C   -0.000000  -0.000000   0.000000   0.000000  -0.000000  -0.000000
    16  C   -0.000000  -0.000000   0.000000   0.000000  -0.000000  -0.000000
    17  H    0.000000   0.000000   0.000000   0.000000   0.000000   0.000000
    18  H   -0.000000  -0.000000   0.000000   0.000000   0.000000  -0.000000
    19  H    0.000000   0.000000  -0.000000  -0.000000   0.000000   0.000000
    20  H    0.000000   0.000001  -0.000000  -0.000000   0.000000   0.000000
    21  H   -0.000000  -0.000000  -0.000000   0.000000  -0.000000  -0.000000
    22  H    0.000000   0.000000   0.000000  -0.000000   0.000000   0.000000
    23  H   -0.000000  -0.000000  -0.000000   0.000000   0.000000   0.000000
    24  H   -0.000000   0.000000  -0.000000  -0.000000  -0.000000  -0.000000
    25  S   15.373200   0.009492  -0.061565   0.005897  -0.000100   0.009398
    26  S    0.009492  15.364223  -0.000171  -0.000038   0.000327   0.002409
    27  C   -0.061565  -0.000171   4.862645   0.512497  -0.040660  -0.053509
    28  C    0.005897  -0.000038   0.512497   4.880785   0.492422  -0.051813
    29  C   -0.000100   0.000327  -0.040660   0.492422   4.878182   0.511932
    30  C    0.009398   0.002409  -0.053509  -0.051813   0.511932   4.872815
    31  C    0.002359   0.009405  -0.000001   0.000000  -0.000000  -0.000001
    32  C    0.000327  -0.000116   0.000000  -0.000000   0.000000  -0.000000
    33  C   -0.000039   0.005895  -0.000000   0.000000  -0.000000   0.000000
    34  C   -0.000171  -0.061381   0.000000  -0.000000   0.000000  -0.000000
    35  C    0.008692   0.307205   0.000033  -0.000002   0.000002  -0.000302
    36  C   -0.070709  -0.088038  -0.000512   0.000027  -0.000018   0.000093
    37  C    0.316248  -0.092074  -0.000471  -0.000023  -0.000614   0.011520
    38  C   -0.092110   0.317626   0.017234  -0.001029   0.013308  -0.088836
    39  C   -0.088287  -0.070498   0.006430  -0.049896  -0.030029   0.486679
    40  C    0.305999   0.008612   0.443543  -0.048024  -0.054646  -0.045452
    41  H   -0.003206   0.000023   0.419504  -0.037209   0.007352  -0.000573
    42  H    0.000110  -0.000002   0.007015  -0.042087   0.411178  -0.037839
    43  H   -0.000642   0.003270  -0.000894   0.007524  -0.039254   0.419485
    44  H    0.003292  -0.000638  -0.000003   0.000000  -0.000000   0.000000
    45  H   -0.000002   0.000109   0.000000  -0.000000  -0.000000   0.000000
    46  H   -0.000003  -0.000370  -0.000000   0.000000   0.000000   0.000000
    47  H    0.000022  -0.003166   0.000000  -0.000000   0.000000  -0.000000
    48  H   -0.000372  -0.000003  -0.041402   0.413856  -0.042773   0.007642
              31         32         33         34         35         36
     1  S    0.000000   0.000000   0.000000  -0.000000  -0.000000  -0.000000
     2  S    0.000000   0.000000  -0.000000  -0.000000  -0.000000  -0.000000
     3  C   -0.000000   0.000000  -0.000000  -0.000000   0.000000  -0.000000
     4  C   -0.000000   0.000000  -0.000000  -0.000000   0.000000  -0.000000
     5  C    0.000000  -0.000000   0.000000   0.000000  -0.000000   0.000000
     6  C    0.000000   0.000000  -0.000000  -0.000000  -0.000000  -0.000000
     7  C   -0.000000  -0.000000  -0.000000  -0.000000  -0.000000  -0.000000
     8  C    0.000000   0.000000  -0.000000   0.000000  -0.000000  -0.000000
     9  C   -0.000000   0.000000  -0.000000  -0.000000   0.000000   0.000000
    10  C   -0.000000  -0.000000   0.000000   0.000000   0.000000   0.000000
    11  C    0.000000   0.000000  -0.000000  -0.000000   0.000000  -0.000000
    12  C   -0.000000  -0.000000   0.000000   0.000000  -0.000000  -0.000000
    13  C   -0.000000  -0.000000   0.000000   0.000000  -0.000000   0.000000
    14  C   -0.000000   0.000000  -0.000000   0.000000   0.000000   0.000000
    15  C   -0.000000   0.000000  -0.000000  -0.000000   0.000000  -0.000000
    16  C   -0.000000  -0.000000   0.000000   0.000000  -0.000000   0.000000
    17  H   -0.000000   0.000000   0.000000  -0.000000  -0.000000  -0.000000
    18  H   -0.000000  -0.000000   0.000000   0.000000  -0.000000   0.000000
    19  H    0.000000   0.000000  -0.000000  -0.000000   0.000000  -0.000000
    20  H    0.000000   0.000000  -0.000000  -0.000000   0.000000  -0.000000
    21  H   -0.000000   0.000000   0.000000   0.000000  -0.000000  -0.000000
    22  H    0.000000   0.000000  -0.000000  -0.000000   0.000000   0.000000
    23  H   -0.000000   0.000000   0.000000   0.000000  -0.000000  -0.000000
    24  H   -0.000000   0.000000  -0.000000  -0.000000   0.000000  -0.000000
    25  S    0.002359   0.000327  -0.000039  -0.000171   0.008692  -0.070709
    26  S    0.009405  -0.000116   0.005895  -0.061381   0.307205  -0.088038
    27  C   -0.000001   0.000000  -0.000000   0.000000   0.000033  -0.000512
    28  C    0.000000  -0.000000   0.000000  -0.000000  -0.000002   0.000027
    29  C   -0.000000   0.000000  -0.000000   0.000000   0.000002  -0.000018
    30  C   -0.000001  -0.000000   0.000000  -0.000000  -0.000302   0.000093
    31  C    4.876972   0.511264  -0.051623  -0.053867  -0.044857   0.485492
    32  C    0.511264   4.880050   0.492224  -0.040415  -0.054805  -0.029710
    33  C   -0.051623   0.492224   4.880804   0.512324  -0.047761  -0.050256
    34  C   -0.053867  -0.040415   0.512324   4.861294   0.443289   0.007046
    35  C   -0.044857  -0.054805  -0.047761   0.443289   5.388893   0.411651
    36  C    0.485492  -0.029710  -0.050256   0.007046   0.411651   4.951036
    37  C   -0.089605   0.013357  -0.001061   0.017368  -0.097196   0.392895
    38  C    0.011575  -0.000615  -0.000021  -0.000513  -0.086319  -0.014515
    39  C    0.000096  -0.000018   0.000027  -0.000510   0.003482   0.021067
    40  C   -0.000301   0.000002  -0.000002   0.000034  -0.000008   0.003430
    41  H   -0.000000   0.000000  -0.000000   0.000000   0.000001  -0.000009
    42  H    0.000000  -0.000000  -0.000000   0.000000  -0.000000  -0.000000
    43  H    0.000000  -0.000000   0.000000  -0.000003  -0.000107   0.000012
    44  H    0.419717  -0.039669   0.007567  -0.000914   0.008953  -0.045780
    45  H   -0.038204   0.411163  -0.041970   0.007018   0.000276   0.007572
    46  H    0.007642  -0.042879   0.413857  -0.041210   0.008881  -0.000338
    47  H   -0.000565   0.007337  -0.037166   0.419332  -0.047121   0.007242
    48  H    0.000000   0.000000   0.000000  -0.000000  -0.000000  -0.000000
              37         38         39         40         41         42
     1  S   -0.000000  -0.000000   0.000001   0.000000  -0.000000  -0.000000
     2  S   -0.000000  -0.000000   0.000000   0.000000  -0.000000  -0.000000
     3  C    0.000000   0.000000   0.000000  -0.000000   0.000000   0.000000
     4  C   -0.000000   0.000000   0.000000  -0.000000   0.000000   0.000000
     5  C    0.000000  -0.000000  -0.000000   0.000000   0.000000   0.000000
     6  C   -0.000000  -0.000000  -0.000000   0.000000  -0.000000  -0.000000
     7  C    0.000000  -0.000000   0.000000  -0.000000   0.000000  -0.000000
     8  C    0.000000   0.000000   0.000000  -0.000000   0.000000  -0.000000
     9  C   -0.000000  -0.000000  -0.000000   0.000000   0.000000   0.000000
    10  C    0.000000   0.000000  -0.000000   0.000000  -0.000000  -0.000000
    11  C    0.000000  -0.000000  -0.000000  -0.000000  -0.000000  -0.000000
    12  C    0.000000   0.000000  -0.000000  -0.000000   0.000000   0.000000
    13  C    0.000000   0.000000   0.000000  -0.000000   0.000000   0.000000
    14  C   -0.000000   0.000000   0.000000   0.000000   0.000000   0.000000
    15  C    0.000000   0.000000  -0.000000  -0.000000  -0.000000  -0.000000
    16  C    0.000000  -0.000000  -0.000000   0.000000  -0.000000  -0.000000
    17  H    0.000000  -0.000000  -0.000000  -0.000000  -0.000000   0.000000
    18  H    0.000000  -0.000000  -0.000000  -0.000000  -0.000000  -0.000000
    19  H   -0.000000  -0.000000   0.000000   0.000000   0.000000   0.000000
    20  H   -0.000000  -0.000000  -0.000000   0.000000   0.000000  -0.000000
    21  H    0.000000   0.000000   0.000000  -0.000000  -0.000000  -0.000000
    22  H   -0.000000  -0.000000  -0.000000   0.000000  -0.000000   0.000000
    23  H    0.000000   0.000000   0.000000  -0.000000   0.000000  -0.000000
    24  H   -0.000000   0.000000   0.000000   0.000000  -0.000000   0.000000
    25  S    0.316248  -0.092110  -0.088287   0.305999  -0.003206   0.000110
    26  S   -0.092074   0.317626  -0.070498   0.008612   0.000023  -0.000002
    27  C   -0.000471   0.017234   0.006430   0.443543   0.419504   0.007015
    28  C   -0.000023  -0.001029  -0.049896  -0.048024  -0.037209  -0.042087
    29  C   -0.000614   0.013308  -0.030029  -0.054646   0.007352   0.411178
    30  C    0.011520  -0.088836   0.486679  -0.045452  -0.000573  -0.037839
    31  C   -0.089605   0.011575   0.000096  -0.000301  -0.000000   0.000000
    32  C    0.013357  -0.000615  -0.000018   0.000002   0.000000  -0.000000
    33  C   -0.001061  -0.000021   0.000027  -0.000002  -0.000000  -0.000000
    34  C    0.017368  -0.000513  -0.000510   0.000034   0.000000   0.000000
    35  C   -0.097196  -0.086319   0.003482  -0.000008   0.000001  -0.000000
    36  C    0.392895  -0.014515   0.021067   0.003430  -0.000009  -0.000000
    37  C    5.460481   0.363403  -0.014512  -0.086778  -0.000117   0.000016
    38  C    0.363403   5.456435   0.393332  -0.096419  -0.000334  -0.000470
    39  C   -0.014512   0.393332   4.947958   0.412387   0.007232   0.007539
    40  C   -0.086778  -0.096419   0.412387   5.390596  -0.047567   0.000278
    41  H   -0.000117  -0.000334   0.007232  -0.047567   0.566126  -0.000322
    42  H    0.000016  -0.000470   0.007539   0.000278  -0.000322   0.572154
    43  H    0.000094  -0.011924  -0.045403   0.008905   0.000064  -0.007630
    44  H   -0.012046   0.000092   0.000013  -0.000108   0.000000   0.000000
    45  H   -0.000469   0.000016  -0.000000  -0.000000  -0.000000   0.000000
    46  H   -0.000002   0.000010  -0.000000  -0.000000   0.000000   0.000000
    47  H   -0.000333  -0.000117  -0.000009   0.000001   0.000000  -0.000000
    48  H    0.000010  -0.000002  -0.000338   0.008903  -0.007787  -0.007476
              43         44         45         46         47         48
     1  S    0.000001   0.000000  -0.000000   0.000000   0.000000   0.000000
     2  S    0.000000   0.000000  -0.000000  -0.000000   0.000000   0.000000
     3  C   -0.000000  -0.000000   0.000000  -0.000000  -0.000000  -0.000000
     4  C   -0.000000  -0.000000   0.000000  -0.000000   0.000000  -0.000000
     5  C    0.000000   0.000000  -0.000000   0.000000   0.000000   0.000000
     6  C    0.000000   0.000000  -0.000000  -0.000000  -0.000000   0.000000
     7  C    0.000000   0.000000  -0.000000  -0.000000   0.000000   0.000000
     8  C    0.000000   0.000000   0.000000  -0.000000   0.000000   0.000000
     9  C   -0.000000  -0.000000   0.000000  -0.000000   0.000000  -0.000000
    10  C   -0.000000  -0.000000   0.000000  -0.000000   0.000000   0.000000
    11  C    0.000000   0.000000  -0.000000   0.000000  -0.000000   0.000000
    12  C   -0.000000   0.000000  -0.000000   0.000000  -0.000000  -0.000000
    13  C   -0.000000  -0.000000  -0.000000   0.000000  -0.000000  -0.000000
    14  C   -0.000000  -0.000000   0.000000  -0.000000   0.000000  -0.000000
    15  C   -0.000000  -0.000000   0.000000  -0.000000  -0.000000   0.000000
    16  C    0.000000   0.000000  -0.000000   0.000000  -0.000000   0.000000
    17  H    0.000000   0.000000  -0.000000  -0.000000   0.000000   0.000000
    18  H    0.000000   0.000000  -0.000000   0.000000  -0.000000   0.000000
    19  H   -0.000000  -0.000000   0.000000  -0.000000   0.000000  -0.000000
    20  H    0.000000  -0.000000   0.000000  -0.000000   0.000000  -0.000000
    21  H   -0.000000   0.000000  -0.000000   0.000000   0.000000   0.000000
    22  H   -0.000000  -0.000000   0.000000  -0.000000   0.000000  -0.000000
    23  H    0.000000   0.000000  -0.000000  -0.000000  -0.000000  -0.000000
    24  H   -0.000000  -0.000000   0.000000   0.000000  -0.000000  -0.000000
    25  S   -0.000642   0.003292  -0.000002  -0.000003   0.000022  -0.000372
    26  S    0.003270  -0.000638   0.000109  -0.000370  -0.003166  -0.000003
    27  C   -0.000894  -0.000003   0.000000  -0.000000   0.000000  -0.041402
    28  C    0.007524   0.000000  -0.000000   0.000000  -0.000000   0.413856
    29  C   -0.039254  -0.000000  -0.000000   0.000000   0.000000  -0.042773
    30  C    0.419485   0.000000   0.000000   0.000000  -0.000000   0.007642
    31  C    0.000000   0.419717  -0.038204   0.007642  -0.000565   0.000000
    32  C   -0.000000  -0.039669   0.411163  -0.042879   0.007337   0.000000
    33  C    0.000000   0.007567  -0.041970   0.413857  -0.037166   0.000000
    34  C   -0.000003  -0.000914   0.007018  -0.041210   0.419332  -0.000000
    35  C   -0.000107   0.008953   0.000276   0.008881  -0.047121  -0.000000
    36  C    0.000012  -0.045780   0.007572  -0.000338   0.007242  -0.000000
    37  C    0.000094  -0.012046  -0.000469  -0.000002  -0.000333   0.000010
    38  C   -0.011924   0.000092   0.000016   0.000010  -0.000117  -0.000002
    39  C   -0.045403   0.000013  -0.000000  -0.000000  -0.000009  -0.000338
    40  C    0.008905  -0.000108  -0.000000  -0.000000   0.000001   0.008903
    41  H    0.000064   0.000000  -0.000000   0.000000   0.000000  -0.007787
    42  H   -0.007630   0.000000   0.000000   0.000000  -0.000000  -0.007476
    43  H    0.569778   0.000000   0.000000   0.000000   0.000000  -0.000307
    44  H    0.000000   0.572208  -0.007675  -0.000309   0.000064   0.000000
    45  H    0.000000  -0.007675   0.573009  -0.007484  -0.000321   0.000000
    46  H    0.000000  -0.000309  -0.007484   0.571700  -0.007753  -0.000000
    47  H    0.000000   0.000064  -0.000321  -0.007753   0.564639   0.000000
    48  H   -0.000307   0.000000   0.000000  -0.000000   0.000000   0.571908
 Mulliken charges:
               1
     1  S    0.287889
     2  S    0.282167
     3  C   -0.068719
     4  C   -0.082798
     5  C   -0.107498
     6  C   -0.045498
     7  C   -0.043649
     8  C   -0.106608
     9  C   -0.082887
    10  C   -0.069714
    11  C   -0.203383
    12  C    0.013260
    13  C   -0.179808
    14  C   -0.180092
    15  C    0.012321
    16  C   -0.202882
    17  H    0.097913
    18  H    0.096962
    19  H    0.095237
    20  H    0.097030
    21  H    0.097537
    22  H    0.098142
    23  H    0.096821
    24  H    0.098258
    25  S    0.282169
    26  S    0.287887
    27  C   -0.069715
    28  C   -0.082887
    29  C   -0.106608
    30  C   -0.043649
    31  C   -0.045498
    32  C   -0.107498
    33  C   -0.082798
    34  C   -0.068719
    35  C   -0.202882
    36  C    0.012320
    37  C   -0.180091
    38  C   -0.179808
    39  C    0.013260
    40  C   -0.203384
    41  H    0.096821
    42  H    0.097537
[...]
 Alpha  occ. eigenvalues --   -5.92739  -5.92739  -5.92267  -5.92267  -0.92302
 Alpha  occ. eigenvalues --   -0.88212  -0.84135  -0.82097  -0.77756  -0.77358
 Alpha  occ. eigenvalues --   -0.73954  -0.72123  -0.70016  -0.64604  -0.61534
 Alpha  occ. eigenvalues --   -0.59365  -0.58463  -0.56987  -0.51417  -0.50220
 Alpha  occ. eigenvalues --   -0.49097  -0.47492  -0.45651  -0.45496  -0.43992
 Alpha  occ. eigenvalues --   -0.43459  -0.43123  -0.40830  -0.40503  -0.39185
 Alpha  occ. eigenvalues --   -0.37284  -0.36629  -0.36204  -0.34755  -0.34568
 Alpha  occ. eigenvalues --   -0.34541  -0.32716  -0.28877  -0.28202  -0.24977
 Alpha  occ. eigenvalues --   -0.22873  -0.21142
 Alpha virt. eigenvalues --   -0.05634  -0.02355  -0.01598  -0.00538   0.00529
 Alpha virt. eigenvalues --    0.01814   0.04007   0.04132   0.04932   0.06274
 Alpha virt. eigenvalues --    0.07391   0.07898   0.08378   0.11281   0.12155
 Alpha virt. eigenvalues --    0.12961   0.13135   0.13213   0.14000   0.15844
 Alpha virt. eigenvalues --    0.16154   0.17706   0.19342   0.20644   0.23011
 Alpha virt. eigenvalues --    0.23156   0.24325   0.26898   0.27563   0.27686
 Alpha virt. eigenvalues --    0.28436   0.28987   0.29457   0.32879   0.34470
 Alpha virt. eigenvalues --    0.35828   0.37143   0.37441   0.38214   0.38784
 Alpha virt. eigenvalues --    0.38883   0.39778   0.40122   0.40604   0.41645
 Alpha virt. eigenvalues --    0.42095   0.42530   0.42664   0.44115   0.44468
 Alpha virt. eigenvalues --    0.44601   0.45384   0.45598   0.45806   0.45854
 Alpha virt. eigenvalues --    0.48376   0.49289   0.49469   0.50768   0.51611
 Alpha virt. eigenvalues --    0.53255   0.54814   0.56289   0.57147   0.58053
 Alpha virt. eigenvalues --    0.58699   0.59093   0.59418   0.59907   0.60359
 Alpha virt. eigenvalues --    0.60411   0.61634   0.62056   0.63624   0.63701
 Alpha virt. eigenvalues --    0.64647   0.66103   0.69589   0.70213   0.71869
 Alpha virt. eigenvalues --    0.72254   0.72781   0.73141   0.73662   0.74647
 Alpha virt. eigenvalues --    0.75797   0.76581   0.77499   0.78874   0.80150
 Alpha virt. eigenvalues --    0.80162   0.81842   0.83225   0.84213   0.84656
 Alpha virt. eigenvalues --    0.85760   0.85988   0.88325   0.88907   0.90285
 Alpha virt. eigenvalues --    0.90749   0.92271   0.93486   0.95972   0.96735
 Alpha virt. eigenvalues --    0.96752   0.98696   0.99409   1.00269   1.01682
 Alpha virt. eigenvalues --    1.02841   1.06057   1.06378   1.07541   1.08927
 Alpha virt. eigenvalues --    1.08966   1.09370   1.10726   1.11288   1.15743
 Alpha virt. eigenvalues --    1.18261   1.20259   1.21823   1.22319   1.24553
 Alpha virt. eigenvalues --    1.27961   1.28574   1.28963   1.34786   1.38700
 Alpha virt. eigenvalues --    1.40575   1.41488   1.42794   1.44201   1.44815
 Alpha virt. eigenvalues --    1.47146   1.47767   1.48942   1.52381   1.53863
 Alpha virt. eigenvalues --    1.53968   1.55929   1.56261   1.57906   1.58887
 Alpha virt. eigenvalues --    1.59642   1.60508   1.61021   1.61377   1.62167
 Alpha virt. eigenvalues --    1.63004   1.67111   1.69298   1.70368   1.71950
 Alpha virt. eigenvalues --    1.72872   1.73402   1.74565   1.75625   1.80208
 Alpha virt. eigenvalues --    1.80449   1.81565   1.82362   1.83269   1.83805
 Alpha virt. eigenvalues --    1.84229   1.86699   1.88786   1.89364   1.89440
 Alpha virt. eigenvalues --    1.89832   1.90823   1.90933   1.93661   1.93790
 Alpha virt. eigenvalues --    1.93885   1.96146   1.96192   1.98879   1.99490
 Alpha virt. eigenvalues --    2.00049   2.01111   2.02442   2.03435   2.06509
 Alpha virt. eigenvalues --    2.08045   2.10951   2.12006   2.14109   2.22431
 Alpha virt. eigenvalues --    2.25160   2.26306   2.26613   2.27653   2.32650
 Alpha virt. eigenvalues --    2.32800   2.32874   2.33279   2.34000   2.35759
 Alpha virt. eigenvalues --    2.37461   2.40468   2.47840   2.51992   2.53565
 Alpha virt. eigenvalues --    2.55488   2.56345   2.57262   2.59883   2.60227
 Alpha virt. eigenvalues --    2.61400   2.61610   2.62145   2.63709   2.64452
 Alpha virt. eigenvalues --    2.65123   2.65896   2.68911   2.68924   2.68999
 Alpha virt. eigenvalues --    2.70410   2.71688   2.73533   2.77368   2.79988
 Alpha virt. eigenvalues --    2.81351   2.81647   2.82207   2.83175   2.83583
 Alpha virt. eigenvalues --    2.87662   2.91705   2.92379   2.97020   3.03978
 Alpha virt. eigenvalues --    3.04299   3.07287   3.10371   3.15514   3.17190
 Alpha virt. eigenvalues --    3.23369   3.24266   3.29670   3.30263   3.31901
 Alpha virt. eigenvalues --    3.34398   3.38725   3.42628   3.44598   3.45777
 Alpha virt. eigenvalues --    3.50498   3.54556   3.55826   3.62654   3.75967
 Alpha virt. eigenvalues --    3.82196   3.98588   4.00437   4.01595   4.03790
 Alpha virt. eigenvalues --    4.11484   4.11840   4.19784   4.54946   4.79699
 Alpha virt. eigenvalues --    4.79826   7.81119   7.83950  17.19636  17.21067
 Alpha virt. eigenvalues --   17.43715  17.51189  17.52287  17.53379  23.35373
 Alpha virt. eigenvalues --   23.53812  23.68918  23.85655  23.85823  23.90157
 Alpha virt. eigenvalues --   23.92087  23.98132  24.01115  24.03741  24.07284
 Alpha virt. eigenvalues --   24.07407  24.14660  24.14770 188.92517 188.95387
          Condensed to atoms (all electrons):
              25         26         27         28         29         30
    25  S   15.370521   0.009509  -0.061459   0.005886  -0.000104   0.009383
    26  S    0.009509  15.370523  -0.000169  -0.000038   0.000327   0.002372
    27  C   -0.061459  -0.000169   4.861974   0.512594  -0.040618  -0.053511
    28  C    0.005886  -0.000038   0.512594   4.879645   0.492494  -0.051841
    29  C   -0.000104   0.000327  -0.040618   0.492494   4.878939   0.511515
    30  C    0.009383   0.002372  -0.053511  -0.051841   0.511515   4.875463
    31  C    0.002372   0.009384  -0.000001   0.000000  -0.000000  -0.000001
    32  C    0.000327  -0.000104   0.000000  -0.000000   0.000000  -0.000000
    33  C   -0.000038   0.005886  -0.000000   0.000000  -0.000000   0.000000
    34  C   -0.000169  -0.061459   0.000000  -0.000000   0.000000  -0.000001
    35  C    0.008663   0.306204   0.000033  -0.000002   0.000002  -0.000301
    36  C   -0.070641  -0.088260  -0.000510   0.000027  -0.000018   0.000095
    37  C    0.316757  -0.092103  -0.000488  -0.000022  -0.000613   0.011534
    38  C   -0.092103   0.316757   0.017255  -0.001042   0.013325  -0.089217
    39  C   -0.088260  -0.070641   0.006577  -0.049987  -0.029891   0.486116
    40  C    0.306204   0.008663   0.443291  -0.047947  -0.054765  -0.045309
    41  H   -0.003185   0.000023   0.419541  -0.037063   0.007347  -0.000568
    42  H    0.000110  -0.000002   0.007001  -0.041819   0.411184  -0.038061
    43  H   -0.000642   0.003289  -0.000908   0.007554  -0.039506   0.419764
    44  H    0.003289  -0.000642  -0.000003   0.000000  -0.000000   0.000000
    45  H   -0.000002   0.000110   0.000000  -0.000000  -0.000000   0.000000
    46  H   -0.000003  -0.000371  -0.000000   0.000000   0.000000   0.000000
    47  H    0.000023  -0.003185   0.000000  -0.000000   0.000000  -0.000000
    48  H   -0.000371  -0.000003  -0.041208   0.413909  -0.042677   0.007628
              31         32         33         34         35         36
    25  S    0.002372   0.000327  -0.000038  -0.000169   0.008663  -0.070641
    26  S    0.009384  -0.000104   0.005886  -0.061459   0.306204  -0.088260
    27  C   -0.000001   0.000000  -0.000000   0.000000   0.000033  -0.000510
    28  C    0.000000  -0.000000   0.000000  -0.000000  -0.000002   0.000027
    29  C   -0.000000   0.000000  -0.000000   0.000000   0.000002  -0.000018
    30  C   -0.000001  -0.000000   0.000000  -0.000001  -0.000301   0.000095
    31  C    4.875464   0.511514  -0.051841  -0.053511  -0.045308   0.486115
    32  C    0.511514   4.878939   0.492494  -0.040618  -0.054765  -0.029890
    33  C   -0.051841   0.492494   4.879646   0.512593  -0.047947  -0.049987
    34  C   -0.053511  -0.040618   0.512593   4.861974   0.443290   0.006578
    35  C   -0.045308  -0.054765  -0.047947   0.443290   5.390459   0.412309
    36  C    0.486115  -0.029890  -0.049987   0.006578   0.412309   4.949756
    37  C   -0.089217   0.013325  -0.001043   0.017255  -0.096660   0.392922
    38  C    0.011534  -0.000613  -0.000022  -0.000488  -0.086686  -0.014510
    39  C    0.000095  -0.000018   0.000027  -0.000510   0.003451   0.021082
    40  C   -0.000301   0.000002  -0.000002   0.000033  -0.000008   0.003451
    41  H   -0.000000   0.000000  -0.000000   0.000000   0.000001  -0.000009
    42  H    0.000000  -0.000000  -0.000000   0.000000  -0.000000  -0.000000
    43  H    0.000000  -0.000000   0.000000  -0.000003  -0.000107   0.000013
    44  H    0.419764  -0.039506   0.007554  -0.000908   0.008942  -0.045793
    45  H   -0.038061   0.411184  -0.041819   0.007001   0.000281   0.007544
    46  H    0.007628  -0.042677   0.413909  -0.041208   0.008882  -0.000338
    47  H   -0.000568   0.007347  -0.037063   0.419542  -0.047521   0.007228
    48  H    0.000000   0.000000   0.000000  -0.000000  -0.000000  -0.000000
              37         38         39         40         41         42
    25  S    0.316757  -0.092103  -0.088260   0.306204  -0.003185   0.000110
    26  S   -0.092103   0.316757  -0.070641   0.008663   0.000023  -0.000002
    27  C   -0.000488   0.017255   0.006577   0.443291   0.419541   0.007001
    28  C   -0.000022  -0.001042  -0.049987  -0.047947  -0.037063  -0.041819
    29  C   -0.000613   0.013325  -0.029891  -0.054765   0.007347   0.411184
    30  C    0.011534  -0.089217   0.486116  -0.045309  -0.000568  -0.038061
    31  C   -0.089217   0.011534   0.000095  -0.000301  -0.000000   0.000000
    32  C    0.013325  -0.000613  -0.000018   0.000002   0.000000  -0.000000
    33  C   -0.001043  -0.000022   0.000027  -0.000002  -0.000000  -0.000000
    34  C    0.017255  -0.000488  -0.000510   0.000033   0.000000   0.000000
    35  C   -0.096660  -0.086686   0.003451  -0.000008   0.000001  -0.000000
    36  C    0.392922  -0.014510   0.021082   0.003451  -0.000009  -0.000000
    37  C    5.458987   0.363451  -0.014510  -0.086686  -0.000118   0.000016
    38  C    0.363451   5.458985   0.392924  -0.096660  -0.000333  -0.000469
    39  C   -0.014510   0.392924   4.949754   0.412309   0.007227   0.007544
    40  C   -0.086686  -0.096660   0.412309   5.390459  -0.047521   0.000281
    41  H   -0.000118  -0.000333   0.007227  -0.047521   0.565102  -0.000321
    42  H    0.000016  -0.000469   0.007544   0.000281  -0.000321   0.571823
    43  H    0.000092  -0.012023  -0.045793   0.008942   0.000064  -0.007644
    44  H   -0.012023   0.000092   0.000013  -0.000107   0.000000   0.000000
    45  H   -0.000469   0.000016  -0.000000  -0.000000  -0.000000   0.000000
    46  H   -0.000002   0.000010  -0.000000  -0.000000   0.000000   0.000000
    47  H   -0.000333  -0.000118  -0.000009   0.000001   0.000000  -0.000000
    48  H    0.000010  -0.000002  -0.000338   0.008882  -0.007754  -0.007454
              43         44         45         46         47         48
    25  S   -0.000642   0.003289  -0.000002  -0.000003   0.000023  -0.000371
    26  S    0.003289  -0.000642   0.000110  -0.000371  -0.003185  -0.000003
    27  C   -0.000908  -0.000003   0.000000  -0.000000   0.000000  -0.041208
    28  C    0.007554   0.000000  -0.000000   0.000000  -0.000000   0.413909
    29  C   -0.039506  -0.000000  -0.000000   0.000000   0.000000  -0.042677
    30  C    0.419764   0.000000   0.000000   0.000000  -0.000000   0.007628
    31  C    0.000000   0.419764  -0.038061   0.007628  -0.000568   0.000000
    32  C   -0.000000  -0.039506   0.411184  -0.042677   0.007347   0.000000
    33  C    0.000000   0.007554  -0.041819   0.413909  -0.037063   0.000000
    34  C   -0.000003  -0.000908   0.007001  -0.041208   0.419542  -0.000000
    35  C   -0.000107   0.008942   0.000281   0.008882  -0.047521  -0.000000
    36  C    0.000013  -0.045793   0.007544  -0.000338   0.007228  -0.000000
    37  C    0.000092  -0.012023  -0.000469  -0.000002  -0.000333   0.000010
    38  C   -0.012023   0.000092   0.000016   0.000010  -0.000118  -0.000002
    39  C   -0.045793   0.000013  -0.000000  -0.000000  -0.000009  -0.000338
    40  C    0.008942  -0.000107  -0.000000  -0.000000   0.000001   0.008882
    41  H    0.000064   0.000000  -0.000000   0.000000   0.000000  -0.007754
    42  H   -0.007644   0.000000   0.000000   0.000000  -0.000000  -0.007454
    43  H    0.571389   0.000000   0.000000   0.000000   0.000000  -0.000308
    44  H    0.000000   0.571389  -0.007644  -0.000308   0.000064   0.000000
    45  H    0.000000  -0.007644   0.571823  -0.007454  -0.000321   0.000000
    46  H    0.000000  -0.000308  -0.007454   0.570652  -0.007754  -0.000000
    47  H    0.000000   0.000064  -0.000321  -0.007754   0.565101   0.000000
    48  H   -0.000308   0.000000   0.000000  -0.000000   0.000000   0.570652
 Mulliken charges:
               1
     1  S    0.000000
     2  S    0.000000
     3  C    0.000000
     4  C    0.000000
     5  C    0.000000
     6  C    0.000000
     7  C    0.000000
     8  C    0.000000
     9  C    0.000000
    10  C    0.000000
    11  C    0.000000
    12  C    0.000000
    13  C    0.000000
    14  C    0.000000
    15  C    0.000000
    16  C    0.000000
    17  H    0.000000
    18  H    0.000000
    19  H    0.000000
    20  H    0.000000
    21  H    0.000000
    22  H    0.000000
    23  H    0.000000
    24  H    0.000000
    25  S    0.283934
    26  S    0.283932
    27  C   -0.069392
    28  C   -0.082346
    29  C   -0.106941
    30  C   -0.045060
    31  C   -0.045060
    32  C   -0.106942
    33  C   -0.082346
    34  C   -0.069391
    35  C   -0.203209
    36  C    0.012838
    37  C   -0.180063
    38  C   -0.180063
    39  C    0.012838
    40  C   -0.203209
    41  H    0.097566
    42  H    0.097812
    43  H    0.095826
    44  H    0.095826
    45  H    0.097812
    46  H    0.099035
    47  H    0.097566
    48  H    0.099035
 Sum of Mulliken charges =  -0.00000
 Mulliken charges with hydrogens summed into heavy atoms:
               1
     1  S    0.000000
     2  S    0.000000
     3  C    0.000000
     4  C    0.000000
     5  C    0.000000
     6  C    0.000000
     7  C    0.000000
     8  C    0.000000
     9  C    0.000000
    10  C    0.000000
    11  C    0.000000
    12  C    0.000000
    13  C    0.000000
    14  C    0.000000
    15  C    0.000000
    16  C    0.000000
    25  S    0.283934
    26  S    0.283932
    27  C    0.028174
    28  C    0.016688
    29  C   -0.009129
    30  C    0.050766
    31  C    0.050766
    32  C   -0.009129
    33  C    0.016688
    34  C    0.028175
    35  C   -0.203209
    36  C    0.012838
    37  C   -0.180063
    38  C   -0.180063
    39  C    0.012838
    40  C   -0.203209
         Mulliken charges condensed to fragments:
      1      0.000000
      2     -0.000000
 Electronic spatial extent (au):  <R**2>=          11603.1015
 Charge=             -0.0000 electrons
 Dipole moment (field-independent basis, Debye):
    X=             -0.0000    Y=              0.0000    Z=             -0.0000  Tot=              0.0000
 Quadrupole moment (field-independent basis, Debye-Ang):
   XX=           -108.9400   YY=            -88.7585   ZZ=           -102.5776
   XY=             -1.5630   XZ=              7.0666   YZ=              0.3884
 Traceless Quadrupole moment (field-independent basis, Debye-Ang):
   XX=             -8.8480   YY=             11.3335   ZZ=             -2.4855
   XY=             -1.5630   XZ=              7.0666   YZ=              0.3884
 Octapole moment (field-independent basis, Debye-Ang**2):
  XXX=           1316.2546  YYY=             33.9494  ZZZ=            -64.9505  XYY=            357.8699
  XXY=             26.4797  XXZ=            -79.9139  XZZ=            416.1098  YZZ=             13.2421
  YYZ=            -18.8325  XYZ=             -2.7949
 Hexadecapole moment (field-independent basis, Debye-Ang**3):
 XXXX=         -11109.9384 YYYY=          -4244.9572 ZZZZ=           -947.4202 XXXY=            -74.0351
 XXXZ=            367.1614 YYYX=            -17.2920 YYYZ=             34.7045 ZZZX=             38.7913
 ZZZY=              1.4189 XXYY=          -2353.8676 XXZZ=          -1910.4024 YYZZ=           -903.6947
 XXYZ=              1.9759 YYXZ=             84.8265 ZZXY=             -9.3901
 N-N= 1.192162449365D+03 E-N=-5.527361779824D+03  KE= 1.331399870340D+03
 CPIOFr:  IOpCl= 0 IRwI=-1 IRwCP=  731 ICalc=  4 LCPTot=      762852 Len1MO=     1998050 IndFrg=    10753102
 CPIOFr:  IOpCl= 0 IRwI=-2 IRwCP=  731 ICalc=  0 LCPTot=      762852 Len1MO=     1998050 IndFrg=     2760902
 Counterpoise corrected energy =   -2669.795193609998
                   BSSE energy =       0.000003495142
              sum of fragments =   -2669.794630473420
           complexation energy =      -0.36 kcal/mole (raw)
           complexation energy =      -0.35 kcal/mole (corrected)
 1\1\GINC-CMDELL86\SP\RB3LYP\6-311G(d,p)\C28H16S4\OHNO\14-Jul-2021\0\\#
 b3lyp/6-311G** EmpiricalDispersion=GD3 counterpoise=2\\BTBT dimer b3ly
 p/6-311G**\\0,1\S,0,1.6203193263,0.9333401805,-0.9655543418\S,0,-1.620
 3215046,-0.9333388826,0.9655526073\C,0,0.7607010875,0.432046614,-3.596
 4890673\C,0,-0.1990145233,-0.0970811798,-4.456605144\C,0,-1.3358730484
 ,-0.7617409166,-3.9518894629\C,0,-1.5484008838,-0.8661903564,-2.581713
 2069\C,0,1.5483981093,0.866196593,2.581713372\C,0,1.3358706776,0.76174
 32744,3.9518892671\C,0,0.19901583,0.0970776341,4.4566055645\C,0,-0.760
 6973501,-0.4320550248,3.5964887592\C,0,-0.5418750743,-0.3467155574,2.2
 136722139\C,0,0.5874862401,0.3462927079,1.6917199634\C,0,0.5677107081,
 0.3035896045,0.2629304608\C,0,-0.5677107915,-0.3035871419,-0.262930279
 8\C,0,-0.5874867399,-0.3462921765,-1.6917195198\C,0,0.5418798052,0.346
 711325,-2.2136710574\H,0,1.6351619757,0.9441051055,-3.9892419249\H,0,-
 2.069015815,-1.1685664408,-4.6425298944\H,0,-2.4232632237,-1.382224776
 ,-2.1937042881\H,0,2.4232592385,1.3822352091,2.193705084\H,0,2.0690081
 682,1.1685767873,4.6425301772\H,0,0.0489377359,0.0282464127,5.53031334
 02\H,0,-1.6351576368,-0.9441151195,3.9892396112\H,0,-0.0489323111,-0.0
 282538749,-5.5303122329\S,0,1.6203193263,9.0033401805,-0.9655543418\S,
 0,-1.6203215046,7.1366611174,0.9655526073\C,0,0.7607010875,8.502046614
 ,-3.5964890673\C,0,-0.1990145233,7.9729188202,-4.456605144\C,0,-1.3358
 730484,7.3082590834,-3.9518894629\C,0,-1.5484008838,7.2038096436,-2.58
 17132069\C,0,1.5483981093,8.936196593,2.581713372\C,0,1.3358706776,8.8
 317432744,3.9518892671\C,0,0.19901583,8.1670776341,4.4566055645\C,0,-0
 .7606973501,7.6379449752,3.5964887592\C,0,-0.5418750743,7.7232844426,2
 .2136722139\C,0,0.5874862401,8.4162927079,1.6917199634\C,0,0.567710708
 1,8.3735896045,0.2629304608\C,0,-0.5677107915,7.7664128581,-0.26293027
 98\C,0,-0.5874867399,7.7237078235,-1.6917195198\C,0,0.5418798052,8.416
 711325,-2.2136710574\H,0,1.6351619757,9.0141051055,-3.9892419249\H,0,-
 2.069015815,6.9014335592,-4.6425298944\H,0,-2.4232632237,6.687775224,-
 2.1937042881\H,0,2.4232592385,9.4522352091,2.193705084\H,0,2.069008168
 2,9.2385767873,4.6425301772\H,0,0.0489377359,8.0982464127,5.5303133402
 \H,0,-1.6351576368,7.1258848805,3.9892396112\H,0,-0.0489323111,8.04174
 61251,-5.5303122329\\Version=ES64L-G16RevA.03\State=1-A\HF=-1334.89731
 52\RMSD=8.836e-09\Dipole=0.0000025,0.0000074,0.0000047\Quadrupole=-2.0
 561202,-14.764366,16.8204862,9.5763139,1.1644158,0.6085979\PG=C01 [X(C
 28H16S4)]\\@


 MAN IS THE MEASURE OF ALL THINGS.
  -- PROTAGORAS (5TH CENTURY B.C.)
 Job cpu time:       0 days  1 hours 53 minutes  4.1 seconds.
 Elapsed time:       0 days  0 hours  2 minutes 52.4 seconds.
 File lengths (MBytes):  RWF=    395 Int=      0 D2E=      0 Chk=    113 Scr=      2
 Normal termination of Gaussian 16 at Wed Jul 14 12:20:12 2021.
