 Entering Gaussian System, Link 0=g16
 Initial command:
 /home/g03/g16/l1.exe "/home/scr/21098/Gau-154739.inp" -scrdir="/home/scr/21098/"
 Entering Link 1 = /home/g03/g16/l1.exe PID=    154740.
  
 Copyright (c) 1988,1990,1992,1993,1995,1998,2003,2009,2016,
            Gaussian, Inc.  All Rights Reserved.
  
 This is part of the Gaussian(R) 16 program.  It is based on
 the Gaussian(R) 09 system (copyright 2009, Gaussian, Inc.),
 the Gaussian(R) 03 system (copyright 2003, Gaussian, Inc.),
 the Gaussian(R) 98 system (copyright 1998, Gaussian, Inc.),
 the Gaussian(R) 94 system (copyright 1995, Gaussian, Inc.),
 the Gaussian 92(TM) system (copyright 1992, Gaussian, Inc.),
 the Gaussian 90(TM) system (copyright 1990, Gaussian, Inc.),
 the Gaussian 88(TM) system (copyright 1988, Gaussian, Inc.),
 the Gaussian 86(TM) system (copyright 1986, Carnegie Mellon
 University), and the Gaussian 82(TM) system (copyright 1983,
 Carnegie Mellon University). Gaussian is a federally registered
 trademark of Gaussian, Inc.
  
 This software contains proprietary and confidential information,
 including trade secrets, belonging to Gaussian, Inc.
  
 This software is provided under written license and may be
 used, copied, transmitted, or stored only in accord with that
 written license.
  
 The following legend is applicable only to US Government
 contracts under FAR:
  
                    RESTRICTED RIGHTS LEGEND
  
 Use, reproduction and disclosure by the US Government is
 subject to restrictions as set forth in subparagraphs (a)
 and (c) of the Commercial Computer Software - Restricted
 Rights clause in FAR 52.227-19.
  
 Gaussian, Inc.
 340 Quinnipiac St., Bldg. 40, Wallingford CT 06492
  
  
 ---------------------------------------------------------------
 Warning -- This program may not be used in any manner that
 competes with the business of Gaussian, Inc. or will provide
 assistance to any competitor of Gaussian, Inc.  The licensee
 of this program is prohibited from giving any competitor of
 Gaussian, Inc. access to this program.  By using this program,
 the user acknowledges that Gaussian, Inc. is engaged in the
 business of creating and licensing software in the field of
 computational chemistry and represents and warrants to the
 licensee that it is not a competitor of Gaussian, Inc. and that
 it will not use this program in any manner prohibited above.
 ---------------------------------------------------------------
  

 Cite this work as:
 Gaussian 16, Revision A.03,
 M. J. Frisch, G. W. Trucks, H. B. Schlegel, G. E. Scuseria, 
 M. A. Robb, J. R. Cheeseman, G. Scalmani, V. Barone, 
 G. A. Petersson, H. Nakatsuji, X. Li, M. Caricato, A. V. Marenich, 
 J. Bloino, B. G. Janesko, R. Gomperts, B. Mennucci, H. P. Hratchian, 
 J. V. Ortiz, A. F. Izmaylov, J. L. Sonnenberg, D. Williams-Young, 
 F. Ding, F. Lipparini, F. Egidi, J. Goings, B. Peng, A. Petrone, 
 T. Henderson, D. Ranasinghe, V. G. Zakrzewski, J. Gao, N. Rega, 
 G. Zheng, W. Liang, M. Hada, M. Ehara, K. Toyota, R. Fukuda, 
 J. Hasegawa, M. Ishida, T. Nakajima, Y. Honda, O. Kitao, H. Nakai, 
 T. Vreven, K. Throssell, J. A. Montgomery, Jr., J. E. Peralta, 
 F. Ogliaro, M. J. Bearpark, J. J. Heyd, E. N. Brothers, K. N. Kudin, 
 V. N. Staroverov, T. A. Keith, R. Kobayashi, J. Normand, 
 K. Raghavachari, A. P. Rendell, J. C. Burant, S. S. Iyengar, 
 J. Tomasi, M. Cossi, J. M. Millam, M. Klene, C. Adamo, R. Cammi, 
 J. W. Ochterski, R. L. Martin, K. Morokuma, O. Farkas, 
 J. B. Foresman, and D. J. Fox, Gaussian, Inc., Wallingford CT, 2016.
 
 ******************************************
 Gaussian 16:  ES64L-G16RevA.03 25-Dec-2016
                14-Jul-2021 
 ******************************************
 %NProcShared=40
 Will use up to   40 processors via shared memory.
 %Mem=15GB
 ------------------------------------------------------
 #b3lyp/6-311G** EmpiricalDispersion=GD3 counterpoise=2
 ------------------------------------------------------
 1/38=1,62=2,172=1/1;
 2/12=2,17=6,18=5,40=1/2;
 1/38=1,53=2,62=2,63=1/22;
 3/5=4,6=6,7=101,11=2,25=1,30=1,74=-5,124=31/1,2,3;
 4//1;
 5/5=2,38=5/2;
 6/7=2,8=2,9=2,10=2,28=1/1;
 1/53=2,62=2,63=1/22;
 3/5=7,6=11,7=101,11=2,25=1,30=1,74=-5,82=7,124=31/1,2,3;
 4//1;
 5/5=2,38=5/2;
 6/7=2,8=2,9=2,10=2,28=1/1;
 1/53=2,62=2,63=1/22(-4);
 99/5=1,9=1/99;
 -------------------------
 BTBT dimer b3lyp/6-311G**
 -------------------------
 Symbolic Z-matrix:
 Charge =  0 Multiplicity = 1 in supermolecule
 Charge =  0 Multiplicity = 1 in fragment      1.
 Charge =  0 Multiplicity = 1 in fragment      2.
 S                     1.62032   0.93334  -0.96555    
 S                    -1.62032  -0.93334   0.96555    
 C                     0.7607    0.43205  -3.59649    
 C                    -0.19901  -0.09708  -4.45661    
 C                    -1.33587  -0.76174  -3.95189    
 C                    -1.5484   -0.86619  -2.58171    
 C                     1.5484    0.8662    2.58171    
 C                     1.33587   0.76174   3.95189    
 C                     0.19902   0.09708   4.45661    
 C                    -0.7607   -0.43206   3.59649    
 C                    -0.54188  -0.34672   2.21367    
 C                     0.58749   0.34629   1.69172    
 C                     0.56771   0.30359   0.26293    
 C                    -0.56771  -0.30359  -0.26293    
 C                    -0.58749  -0.34629  -1.69172    
 C                     0.54188   0.34671  -2.21367    
 H                     1.63516   0.94411  -3.98924    
 H                    -2.06902  -1.16857  -4.64253    
 H                    -2.42326  -1.38222  -2.1937     
 H                     2.42326   1.38224   2.19371    
 H                     2.06901   1.16858   4.64253    
 H                     0.04894   0.02825   5.53031    
 H                    -1.63516  -0.94412   3.98924    
 H                    -0.04893  -0.02825  -5.53031    
 S                     1.62032  -7.07666  -0.96555    
 S                    -1.62032  -8.94334   0.96555    
 C                     0.7607   -7.57795  -3.59649    
 C                    -0.19901  -8.10708  -4.45661    
 C                    -1.33587  -8.77174  -3.95189    
 C                    -1.5484   -8.87619  -2.58171    
 C                     1.5484   -7.1438    2.58171    
 C                     1.33587  -7.24826   3.95189    
 C                     0.19902  -7.91292   4.45661    
 C                    -0.7607   -8.44206   3.59649    
 C                    -0.54188  -8.35672   2.21367    
 C                     0.58749  -7.66371   1.69172    
 C                     0.56771  -7.70641   0.26293    
 C                    -0.56771  -8.31359  -0.26293    
 C                    -0.58749  -8.35629  -1.69172    
 C                     0.54188  -7.66329  -2.21367    
 H                     1.63516  -7.06589  -3.98924    
 H                    -2.06902  -9.17857  -4.64253    
 H                    -2.42326  -9.39222  -2.1937     
 H                     2.42326  -6.62776   2.19371    
 H                     2.06901  -6.84142   4.64253    
 H                     0.04894  -7.98175   5.53031    
 H                    -1.63516  -8.95412   3.98924    
 H                    -0.04893  -8.03825  -5.53031    
 
                          Input orientation:                          
 ---------------------------------------------------------------------
 Center     Atomic      Atomic             Coordinates (Angstroms)
 Number     Number       Type             X           Y           Z
 ---------------------------------------------------------------------
      1         16           0        1.620319    0.933340   -0.965554
      2         16           0       -1.620322   -0.933339    0.965553
      3          6           0        0.760701    0.432047   -3.596489
      4          6           0       -0.199015   -0.097081   -4.456605
      5          6           0       -1.335873   -0.761741   -3.951889
      6          6           0       -1.548401   -0.866190   -2.581713
      7          6           0        1.548398    0.866197    2.581713
      8          6           0        1.335871    0.761743    3.951889
      9          6           0        0.199016    0.097078    4.456606
     10          6           0       -0.760697   -0.432055    3.596489
     11          6           0       -0.541875   -0.346716    2.213672
     12          6           0        0.587486    0.346293    1.691720
     13          6           0        0.567711    0.303590    0.262930
     14          6           0       -0.567711   -0.303587   -0.262930
     15          6           0       -0.587487   -0.346292   -1.691720
     16          6           0        0.541880    0.346711   -2.213671
     17          1           0        1.635162    0.944105   -3.989242
     18          1           0       -2.069016   -1.168566   -4.642530
     19          1           0       -2.423263   -1.382225   -2.193704
     20          1           0        2.423259    1.382235    2.193705
     21          1           0        2.069008    1.168577    4.642530
     22          1           0        0.048938    0.028246    5.530313
     23          1           0       -1.635158   -0.944115    3.989240
     24          1           0       -0.048932   -0.028254   -5.530312
     25         16           0        1.620319   -7.076660   -0.965554
     26         16           0       -1.620322   -8.943339    0.965553
     27          6           0        0.760701   -7.577953   -3.596489
     28          6           0       -0.199015   -8.107081   -4.456605
     29          6           0       -1.335873   -8.771741   -3.951889
     30          6           0       -1.548401   -8.876190   -2.581713
     31          6           0        1.548398   -7.143803    2.581713
     32          6           0        1.335871   -7.248257    3.951889
     33          6           0        0.199016   -7.912922    4.456606
     34          6           0       -0.760697   -8.442055    3.596489
     35          6           0       -0.541875   -8.356716    2.213672
     36          6           0        0.587486   -7.663707    1.691720
     37          6           0        0.567711   -7.706410    0.262930
     38          6           0       -0.567711   -8.313587   -0.262930
     39          6           0       -0.587487   -8.356292   -1.691720
     40          6           0        0.541880   -7.663289   -2.213671
     41          1           0        1.635162   -7.065895   -3.989242
     42          1           0       -2.069016   -9.178566   -4.642530
     43          1           0       -2.423263   -9.392225   -2.193704
     44          1           0        2.423259   -6.627765    2.193705
     45          1           0        2.069008   -6.841423    4.642530
     46          1           0        0.048938   -7.981754    5.530313
     47          1           0       -1.635158   -8.954115    3.989240
     48          1           0       -0.048932   -8.038254   -5.530312
 ---------------------------------------------------------------------
                    Distance matrix (angstroms):
                    1          2          3          4          5
     1  S    0.000000
     2  S    4.208969   0.000000
     3  C    2.812838   5.324075   0.000000
     4  C    4.069297   5.667383   1.393137   0.000000
     5  C    4.531067   4.928650   2.438660   1.410304   0.000000
     6  C    3.986360   3.548630   2.836748   2.434665   1.390489
     7  C    3.548632   3.986363   6.243327   7.315687   7.325105
     8  C    4.928652   4.531069   7.577436   8.590473   8.481093
     9  C    5.667385   4.069299   8.079606   8.924206   8.590474
    10  C    5.324076   2.812839   7.402719   8.079605   7.577436
    11  C    4.052297   1.750707   6.005094   6.683747   6.230315
    12  C    2.910752   2.653147   5.291740   6.214263   6.064435
    13  C    1.736014   2.609819   3.866376   4.798169   4.745868
    14  C    2.609817   1.736015   3.663120   4.214913   3.795840
    15  C    2.653146   2.910750   2.459994   2.803143   2.416826
    16  C    1.750703   4.052296   1.402623   2.403462   2.788553
    17  H    3.023743   6.218759   1.086803   2.160255   3.426128
    18  H    5.616881   5.630919   3.415181   2.163228   1.086273
    19  H    4.818792   3.290459   3.923903   3.423390   2.158387
    20  H    3.290462   4.818795   6.098632   7.300091   7.516385
    21  H    5.630921   5.616882   8.374699   9.462562   9.443696
    22  H    6.744237   4.954605   9.163416   9.990782   9.615298
    23  H    6.218758   3.023743   8.073242   8.608848   7.948859
    24  H    4.954602   6.744235   2.146405   1.086328   2.164633
    25  S    8.010000   7.209114   8.002589   8.013235   7.585214
    26  S   10.572593   8.010000  10.694828  10.472640   9.549905
    27  C    8.950021   8.404308   8.010000   7.591067   7.140216
    28  C    9.860356   9.103982   8.635830   8.010000   7.449913
    29  C   10.575721   9.257575   9.446250   8.763384   8.010000
    30  C   10.434541   8.699262   9.643910   9.077930   8.232062
    31  C    8.822048   7.156999   9.807352  10.111759   9.577980
    32  C    9.549905   7.585214  10.784057  11.144414  10.568009
    33  C   10.472644   8.013241  11.610613  11.861329  11.144419
    34  C   10.694836   8.002599  11.524030  11.610616  10.784065
    35  C   10.054238   7.604431  10.615885  10.622227   9.814694
    36  C    9.057432   7.120365   9.671421   9.781325   9.120679
    37  C    8.789906   7.152319   9.009265   8.986867   8.343667
    38  C    9.528212   7.555476   9.453222   9.232216   8.439720
    39  C    9.575959   7.951609   9.092890   8.718375   7.958999
    40  C    8.753448   7.750794   8.215505   7.926359   7.360620
    41  H    8.551647   8.529737   7.558972   7.221288   6.969276
    42  H   11.374621   9.981768  10.073003   9.273880   8.476876
    43  H   11.156890   9.065229  10.422176   9.821797   8.874620
    44  H    8.233829   7.091219   9.280700   9.682602   9.290298
    45  H    9.596816   7.876343  11.067812  11.550945  11.064348
    46  H   11.142012   8.561753  12.433711  12.726668  11.998269
    47  H   11.528655   8.571800  12.303798  12.322413  11.413417
    48  H   10.203574   9.754247   8.725891   8.014836   7.556142
                    6          7          8          9         10
     6  C    0.000000
     7  C    6.265166   0.000000
     8  C    7.325104   1.390489   0.000000
     9  C    7.315687   2.434666   1.410304   0.000000
    10  C    6.243327   2.836750   2.438660   1.393137   0.000000
    11  C    4.927339   2.444556   2.788550   2.403460   1.402622
    12  C    4.928931   1.409163   2.416825   2.803143   2.459994
    13  C    3.733405   2.579734   3.795839   4.214913   3.663121
    14  C    2.579734   3.733404   4.745867   4.798168   3.866376
    15  C    1.409162   4.928931   6.064435   6.214263   5.291739
    16  C    2.444557   4.927338   6.230314   6.683746   6.005093
    17  H    3.923440   6.571990   7.948861   8.608851   8.073244
    18  H    2.146960   8.331605   9.443696   9.462562   8.374698
    19  H    1.087302   6.605612   7.516383   7.300089   6.098630
    20  H    6.605613   1.087303   2.158387   3.423391   3.923905
    21  H    8.331604   2.146959   1.086273   2.163227   3.415181
    22  H    8.316038   3.412445   2.164633   1.086328   2.146407
    23  H    6.571988   3.923441   3.426129   2.160256   1.086802
    24  H    3.412445   8.316037   9.615296   9.990781   9.163414
    25  S    7.157003   8.699267   9.257577   9.103979   8.404300
    26  S    8.822052  10.434546  10.575722   9.860353   8.950013
    27  C    7.170041  10.492584  11.263187  11.138848  10.252680
    28  C    7.600432  11.537378  12.317252  12.120725  11.138844
    29  C    8.026225  11.995700  12.668672  12.317249  11.263179
    30  C    8.010000  11.452739  11.995697  11.537371  10.492573
    31  C    8.698251   8.010000   8.026221   7.600422   7.170025
    32  C    9.577983   8.232066   8.010000   7.449907   7.140204
    33  C   10.111767   9.077939   8.763390   8.010000   7.591062
    34  C    9.807364   9.643922   9.446259   8.635834   8.010000
    35  C    8.950798   9.463974   9.470672   8.777602   8.047379
    36  C    8.308458   8.629873   8.755379   8.247744   7.598851
    37  C    7.704449   8.934657   9.268663   8.866638   8.111321
    38  C    7.861439   9.840648  10.185772   9.674770   8.777865
    39  C    7.603754  10.386459  10.894411  10.482364   9.528310
    40  C    7.120764   9.836712  10.470230  10.238820   9.367252
    41  H    7.110031  10.300634  11.154508  11.167051  10.358151
    42  H    8.579837  12.890797  13.574500  13.189989  12.086959
    43  H    8.579580  11.992244  12.449999  11.880649  10.796995
    44  H    8.471980   7.554826   7.673230   7.435824   7.105786
    45  H   10.048818   7.995336   7.669590   7.188479   7.083886
    46  H   10.908149   9.446102   8.977547   8.151251   7.835377
    47  H   10.421107  10.418958  10.160035   9.246984   8.575806
    48  H    7.898173  12.150953  13.010372  12.883463  11.902074
                   11         12         13         14         15
    11  C    0.000000
    12  C    1.424132   0.000000
    13  C    2.336551   1.429564   0.000000
    14  C    2.477113   2.361669   1.390818   0.000000
    15  C    3.905658   3.647999   2.361670   1.429564   0.000000
    16  C    4.610503   3.905657   2.477112   2.336551   1.424133
    17  H    6.699392   5.807610   4.430653   4.504973   3.447304
    18  H    7.072136   7.033813   5.760478   4.709883   3.402697
    19  H    4.902741   5.210461   4.221724   2.886940   2.166846
    20  H    3.432447   2.166848   2.886941   4.221724   5.210463
    21  H    3.874555   3.402696   4.709882   5.760477   7.033812
    22  H    3.389656   3.889214   5.300025   5.835413   7.259688
    23  H    2.169053   3.447303   4.504972   4.430651   5.807607
    24  H    7.766190   7.259688   5.835412   5.300024   3.889214
    25  S    7.750788   7.951608   7.555478   7.152319   7.120363
    26  S    8.753444   9.575959   9.528213   8.789907   9.057431
    27  C    9.367256   9.528317   8.777875   8.111331   7.598861
    28  C   10.238820  10.482367   9.674775   8.866643   8.247748
    29  C   10.470226  10.894410  10.185773   9.268663   8.755378
    30  C    9.836705  10.386455   9.840645   8.934654   8.629867
    31  C    7.120751   7.603748   7.861435   7.704445   8.308453
    32  C    7.360611   7.958997   8.439720   8.343666   9.120676
    33  C    7.926358   8.718379   9.232222   8.986872   9.781328
    34  C    8.215509   9.092898   9.453231   9.009274   9.671428
    35  C    8.010000   8.791487   8.946366   8.425385   8.911849
    36  C    7.422012   8.010000   8.094421   7.702370   8.146950
    37  C    7.694263   8.178500   8.010000   7.507829   7.702368
    38  C    8.342977   8.952578   8.707551   8.010000   8.094419
    39  C    8.911088   9.410803   8.952580   8.178502   8.010000
    40  C    8.620217   8.911092   8.342983   7.694270   7.422017
    41  H    9.400160   9.397419   8.574947   8.029125   7.441226
    42  H   11.284558  11.743197  10.996688  10.009998   9.429278
    43  H   10.236495  10.908706  10.439818   9.474930   9.243969
    44  H    6.945790   7.229075   7.430654   7.414593   7.976090
    45  H    7.409271   7.909832   8.513871   8.588314   9.453381
    46  H    8.345237   9.185923   9.831651   9.638266  10.529153
    47  H    8.856367   9.834446  10.219741   9.698042  10.366558
    48  H   10.925752  11.084376  10.174884   9.372274   8.613426
                   16         17         18         19         20
    16  C    0.000000
    17  H    2.169054   0.000000
    18  H    3.874558   4.314058   0.000000
    19  H    3.432447   5.010647   2.483523   0.000000
    20  H    4.902740   6.248351   8.568619   7.097914   0.000000
    21  H    7.072134   8.645583  10.430619   8.568617   2.483523
    22  H    7.766190   9.694165  10.459676   8.231747   4.313194
    23  H    6.699390   8.827034   8.645580   6.248347   5.010648
    24  H    3.389656   2.481240   2.483789   4.313193   8.231747
    25  S    7.604424   8.571790   7.876351   7.091227   9.065238
    26  S   10.054233  11.528647   9.596823   8.233837  11.156898
    27  C    8.047383   8.575804   7.083907   7.105807  10.797010
    28  C    8.777601   9.246978   7.188495   7.435839  11.880660
    29  C    9.470667  10.160025   7.669599   7.673238  12.450006
    30  C    9.463966  10.418945   7.995341   7.554830  11.992247
    31  C    8.950788  10.421096  10.048822   8.471983   8.579584
    32  C    9.814688  11.413410  11.064354   9.290303   8.874628
    33  C   10.622226  12.322410  11.550955   9.682612   9.821809
    34  C   10.615888  12.303798  11.067826   9.280715  10.422191
    35  C    9.824741  11.389508  10.050331   8.462158  10.180353
    36  C    8.911844  10.366551   9.453390   7.976099   9.243978
    37  C    8.425378   9.698033   8.588322   7.414601   9.474937
    38  C    8.946360  10.219732   8.513879   7.430663  10.439824
    39  C    8.791483   9.834438   7.909843   7.229086  10.908714
    40  C    8.010000   8.856362   7.409288   6.945807  10.236506
    41  H    7.700302   8.010000   6.994727   7.211025  10.498611
    42  H   10.170892  10.798898   8.010000   8.179559  13.358337
    43  H   10.180341  11.248755   8.587828   8.010000  12.602664
    44  H    8.462143   9.807301   9.834505   8.381756   8.010000
    45  H   10.050318  11.632290  11.641172   9.834503   8.587828
    46  H   11.383128  13.145683  12.425457  10.455908  10.220305
    47  H   11.389511  13.127297  11.632302   9.807315  11.248770
    48  H    9.036416   9.267893   7.215366   7.814930  12.430518
                   21         22         23         24         25
    21  H    0.000000
    22  H    2.483787   0.000000
    23  H    4.314058   2.481244   0.000000
    24  H   10.459675  11.061203   9.694162   0.000000
    25  S    9.981776   9.754242   8.529726   8.561743   0.000000
    26  S   11.374628  10.203568   8.551636  11.142005   4.208969
    27  C   12.086972  11.902076  10.358148   7.835378   2.812838
    28  C   13.189997  12.883461  11.167045   8.151247   4.069297
    29  C   13.574505  13.010367  11.154498   8.977539   4.531067
    30  C   12.890799  12.150945  10.300620   9.446090   3.986360
    31  C    8.579841   7.898159   7.110014  10.908138   3.548632
    32  C    8.476884   7.556131   6.969261  11.998261   4.928652
    33  C    9.273892   8.014832   7.221281  12.726665   5.667385
    34  C   10.073017   8.725892   7.558971  12.433710   5.324076
    35  C   10.170902   9.036413   7.700296  11.383126   4.052297
    36  C    9.429286   8.613419   7.441214  10.529147   2.910752
    37  C   10.010004   9.372266   8.029112   9.638257   1.736014
    38  C   10.996693  10.174877   8.574935   9.831642   2.609817
    39  C   11.743203  11.084371   9.397408   9.185916   2.653146
    40  C   11.284568  10.925749   9.400154   8.345234   1.750703
    41  H   11.937430  11.977683  10.574845   7.398612   3.023743
    42  H   14.505136  13.883007  11.937415   9.412604   5.616881
    43  H   13.358336  12.430507  10.498593  10.220291   4.818792
    44  H    8.179559   7.814912   7.211003  10.455894   3.290462
    45  H    8.010000   7.215345   6.994703  12.425444   5.630921
    46  H    9.412619   8.010000   7.398611  13.623699   6.744237
    47  H   10.798913   9.267896   8.010000  13.145683   6.218758
    48  H   13.883016  13.689976  11.977679   8.010000   4.954602
                   26         27         28         29         30
    26  S    0.000000
    27  C    5.324075   0.000000
    28  C    5.667383   1.393137   0.000000
    29  C    4.928650   2.438660   1.410304   0.000000
    30  C    3.548630   2.836748   2.434665   1.390489   0.000000
    31  C    3.986363   6.243327   7.315687   7.325105   6.265166
    32  C    4.531069   7.577436   8.590473   8.481093   7.325104
    33  C    4.069299   8.079606   8.924206   8.590474   7.315687
    34  C    2.812839   7.402719   8.079605   7.577436   6.243327
    35  C    1.750707   6.005094   6.683747   6.230315   4.927339
    36  C    2.653147   5.291740   6.214263   6.064435   4.928931
    37  C    2.609819   3.866376   4.798169   4.745868   3.733405
    38  C    1.736015   3.663120   4.214913   3.795840   2.579734
    39  C    2.910750   2.459994   2.803143   2.416826   1.409162
    40  C    4.052296   1.402623   2.403462   2.788553   2.444557
    41  H    6.218759   1.086803   2.160255   3.426128   3.923440
    42  H    5.630919   3.415181   2.163228   1.086273   2.146960
    43  H    3.290459   3.923903   3.423390   2.158387   1.087302
    44  H    4.818795   6.098632   7.300091   7.516385   6.605613
    45  H    5.616882   8.374699   9.462562   9.443696   8.331604
    46  H    4.954605   9.163416   9.990782   9.615298   8.316038
    47  H    3.023743   8.073242   8.608848   7.948859   6.571988
    48  H    6.744235   2.146405   1.086328   2.164633   3.412445
                   31         32         33         34         35
    31  C    0.000000
    32  C    1.390489   0.000000
    33  C    2.434666   1.410304   0.000000
    34  C    2.836750   2.438660   1.393137   0.000000
    35  C    2.444556   2.788550   2.403460   1.402622   0.000000
    36  C    1.409163   2.416825   2.803143   2.459994   1.424132
    37  C    2.579734   3.795839   4.214913   3.663121   2.336551
    38  C    3.733404   4.745867   4.798168   3.866376   2.477113
    39  C    4.928931   6.064435   6.214263   5.291739   3.905658
    40  C    4.927338   6.230314   6.683746   6.005093   4.610503
    41  H    6.571990   7.948861   8.608851   8.073244   6.699392
    42  H    8.331605   9.443696   9.462562   8.374698   7.072136
    43  H    6.605612   7.516383   7.300089   6.098630   4.902741
    44  H    1.087303   2.158387   3.423391   3.923905   3.432447
    45  H    2.146959   1.086273   2.163227   3.415181   3.874555
    46  H    3.412445   2.164633   1.086328   2.146407   3.389656
    47  H    3.923441   3.426129   2.160256   1.086802   2.169053
    48  H    8.316037   9.615296   9.990781   9.163414   7.766190
                   36         37         38         39         40
    36  C    0.000000
    37  C    1.429564   0.000000
    38  C    2.361669   1.390818   0.000000
    39  C    3.647999   2.361670   1.429564   0.000000
    40  C    3.905657   2.477112   2.336551   1.424133   0.000000
    41  H    5.807610   4.430653   4.504973   3.447304   2.169054
    42  H    7.033813   5.760478   4.709883   3.402697   3.874558
    43  H    5.210461   4.221724   2.886940   2.166846   3.432447
    44  H    2.166848   2.886941   4.221724   5.210463   4.902740
    45  H    3.402696   4.709882   5.760477   7.033812   7.072134
    46  H    3.889214   5.300025   5.835413   7.259688   7.766190
    47  H    3.447303   4.504972   4.430651   5.807607   6.699390
    48  H    7.259688   5.835412   5.300024   3.889214   3.389656
                   41         42         43         44         45
    41  H    0.000000
    42  H    4.314058   0.000000
    43  H    5.010647   2.483523   0.000000
    44  H    6.248351   8.568619   7.097914   0.000000
    45  H    8.645583  10.430619   8.568617   2.483523   0.000000
    46  H    9.694165  10.459676   8.231747   4.313194   2.483787
    47  H    8.827034   8.645580   6.248347   5.010648   4.314058
    48  H    2.481240   2.483789   4.313193   8.231747  10.459675
                   46         47         48
    46  H    0.000000
    47  H    2.481244   0.000000
    48  H   11.061203   9.694162   0.000000
 Stoichiometry    C28H16S4
 Framework group  C1[X(C28H16S4)]
 Deg. of freedom   138
 Full point group                 C1      NOp   1
 Largest Abelian subgroup         C1      NOp   1
 Largest concise Abelian subgroup C1      NOp   1
                         Standard orientation:                         
 ---------------------------------------------------------------------
 Center     Atomic      Atomic             Coordinates (Angstroms)
 Number     Number       Type             X           Y           Z
 ---------------------------------------------------------------------
      1         16           0       -4.990693   -1.010703   -1.419999
      2         16           0       -3.003772    0.750902    1.845627
      3          6           0       -4.367534   -3.677199   -0.776937
      4          6           0       -3.761756   -4.584089    0.089904
      5          6           0       -3.049988   -4.138013    1.222758
      6          6           0       -2.973217   -2.783177    1.526049
      7          6           0       -5.021253    2.523377   -1.100420
      8          6           0       -4.944478    3.878214   -0.797130
      9          6           0       -4.232704    4.324291    0.335721
     10          6           0       -3.626921    3.417400    1.202559
     11          6           0       -3.684605    2.051016    0.891087
     12          6           0       -4.423759    1.586316   -0.234015
     13          6           0       -4.339143    0.161725   -0.317891
     14          6           0       -3.655323   -0.421523    0.743517
     15          6           0       -3.570705   -1.846114    0.659642
     16          6           0       -4.309855   -2.310814   -0.465466
     17          1           0       -4.915697   -4.024860   -1.648597
     18          1           0       -2.583651   -4.864202    1.882432
     19          1           0       -2.420928   -2.440145    2.397560
     20          1           0       -5.573546    2.180346   -1.971930
     21          1           0       -5.410822    4.604402   -1.456799
     22          1           0       -4.186447    5.386696    0.557679
     23          1           0       -3.078756    3.765059    2.074217
     24          1           0       -3.808009   -5.646493   -0.132059
     25         16           0        3.003770   -0.750904   -1.845625
     26         16           0        4.990692    1.010701    1.420001
     27          6           0        3.626929   -3.417400   -1.202563
     28          6           0        4.232707   -4.324290   -0.335722
     29          6           0        4.944476   -3.878214    0.797132
     30          6           0        5.021247   -2.523377    1.100423
     31          6           0        2.973211    2.783177   -1.526046
     32          6           0        3.049985    4.138013   -1.222756
     33          6           0        3.761760    4.584090   -0.089905
     34          6           0        4.367543    3.677200    0.776933
     35          6           0        4.309858    2.310815    0.465461
     36          6           0        3.570704    1.846115   -0.659641
     37          6           0        3.655320    0.421524   -0.743517
     38          6           0        4.339141   -0.161724    0.317891
     39          6           0        4.423759   -1.586315    0.234016
     40          6           0        3.684609   -2.051014   -0.891092
     41          1           0        3.078766   -3.765061   -2.074222
     42          1           0        5.410812   -4.604403    1.456807
     43          1           0        5.573536   -2.180346    1.971934
     44          1           0        2.420917    2.440145   -2.397556
     45          1           0        2.583641    4.864201   -1.882424
     46          1           0        3.808016    5.646495    0.132053
     47          1           0        4.915707    4.024858    1.648591
     48          1           0        4.186454   -5.386694   -0.557685
 ---------------------------------------------------------------------
 Rotational constants (GHZ):           0.1240410           0.0589608           0.0444041
 Counterpoise: doing full-system calculation.
 Standard basis: 6-311G(d,p) (5D, 7F)
 There are   736 symmetry adapted cartesian basis functions of A   symmetry.
 There are   704 symmetry adapted basis functions of A   symmetry.
   704 basis functions,  1208 primitive gaussians,   736 cartesian basis functions
   124 alpha electrons      124 beta electrons
       nuclear repulsion energy      3304.2350013893 Hartrees.
 NAtoms=   48 NActive=   48 NUniq=   48 SFac= 1.00D+00 NAtFMM=   60 NAOKFM=F Big=F
 Integral buffers will be    131072 words long.
 Raffenetti 2 integral format.
 Two-electron integral symmetry is turned on.
 Nuclear repulsion after empirical dispersion term =     3304.1916833074 Hartrees.
 One-electron integrals computed using PRISM.
 NBasis=   704 RedAO= T EigKep=  1.75D-04  NBF=   704
 NBsUse=   704 1.00D-06 EigRej= -1.00D+00 NBFU=   704
 ExpMin= 7.71D-02 ExpMax= 9.34D+04 ExpMxC= 3.17D+03 IAcc=3 IRadAn=         5 AccDes= 0.00D+00
 Harris functional with IExCor=  402 and IRadAn=       5 diagonalized for initial guess.
 HarFok:  IExCor=  402 AccDes= 0.00D+00 IRadAn=         5 IDoV= 1 UseB2=F ITyADJ=14
 ICtDFT=  3500011 ScaDFX=  1.000000  1.000000  1.000000  1.000000
 FoFCou: FMM=F IPFlag=           0 FMFlag=      100000 FMFlg1=           0
         NFxFlg=           0 DoJE=T BraDBF=F KetDBF=T FulRan=T
         wScrn=  0.000000 ICntrl=       500 IOpCl=  0 I1Cent=   200000004 NGrid=           0
         NMat0=    1 NMatS0=      1 NMatT0=    0 NMatD0=    1 NMtDS0=    0 NMtDT0=    0
 Petite list used in FoFCou.
 Requested convergence on RMS density matrix=1.00D-08 within 128 cycles.
 Requested convergence on MAX density matrix=1.00D-06.
 Requested convergence on             energy=1.00D-06.
 No special actions if energy rises.
 Integral accuracy reduced to 1.0D-05 until final iterations.
 Initial convergence to 1.0D-05 achieved.  Increase integral accuracy.
 SCF Done:  E(RB3LYP) =  -2669.79522427     A.U. after   14 cycles
            NFock= 14  Conv=0.82D-08     -V/T= 2.0026

 **********************************************************************

            Population analysis using the SCF density.

 **********************************************************************

 Orbital symmetries:
       Occupied  (A) (A) (A) (A) (A) (A) (A) (A) (A) (A) (A) (A)
                 (A) (A) (A) (A) (A) (A) (A) (A) (A) (A) (A) (A)
                 (A) (A) (A) (A) (A) (A) (A) (A) (A) (A) (A) (A)
                 (A) (A) (A) (A) (A) (A) (A) (A) (A) (A) (A) (A)
                 (A) (A) (A) (A) (A) (A) (A) (A) (A) (A) (A) (A)
                 (A) (A) (A) (A) (A) (A) (A) (A) (A) (A) (A) (A)
                 (A) (A) (A) (A) (A) (A) (A) (A) (A) (A) (A) (A)
                 (A) (A) (A) (A) (A) (A) (A) (A) (A) (A) (A) (A)
                 (A) (A) (A) (A) (A) (A) (A) (A) (A) (A) (A) (A)
                 (A) (A) (A) (A) (A) (A) (A) (A) (A) (A) (A) (A)
                 (A) (A) (A) (A)
       Virtual   (A) (A) (A) (A) (A) (A) (A) (A) (A) (A) (A) (A)
                 (A) (A) (A) (A) (A) (A) (A) (A) (A) (A) (A) (A)
                 (A) (A) (A) (A) (A) (A) (A) (A) (A) (A) (A) (A)
                 (A) (A) (A) (A) (A) (A) (A) (A) (A) (A) (A) (A)
                 (A) (A) (A) (A) (A) (A) (A) (A) (A) (A) (A) (A)
                 (A) (A) (A) (A) (A) (A) (A) (A) (A) (A) (A) (A)
                 (A) (A) (A) (A) (A) (A) (A) (A) (A) (A) (A) (A)
                 (A) (A) (A) (A) (A) (A) (A) (A) (A) (A) (A) (A)
                 (A) (A) (A) (A) (A) (A) (A) (A) (A) (A) (A) (A)
                 (A) (A) (A) (A) (A) (A) (A) (A) (A) (A) (A) (A)
                 (A) (A) (A) (A) (A) (A) (A) (A) (A) (A) (A) (A)
                 (A) (A) (A) (A) (A) (A) (A) (A) (A) (A) (A) (A)
                 (A) (A) (A) (A) (A) (A) (A) (A) (A) (A) (A) (A)
                 (A) (A) (A) (A) (A) (A) (A) (A) (A) (A) (A) (A)
                 (A) (A) (A) (A) (A) (A) (A) (A) (A) (A) (A) (A)
                 (A) (A) (A) (A) (A) (A) (A) (A) (A) (A) (A) (A)
                 (A) (A) (A) (A) (A) (A) (A) (A) (A) (A) (A) (A)
                 (A) (A) (A) (A) (A) (A) (A) (A) (A) (A) (A) (A)
                 (A) (A) (A) (A) (A) (A) (A) (A) (A) (A) (A) (A)
                 (A) (A) (A) (A) (A) (A) (A) (A) (A) (A) (A) (A)
                 (A) (A) (A) (A) (A) (A) (A) (A) (A) (A) (A) (A)
                 (A) (A) (A) (A) (A) (A) (A) (A) (A) (A) (A) (A)
                 (A) (A) (A) (A) (A) (A) (A) (A) (A) (A) (A) (A)
                 (A) (A) (A) (A) (A) (A) (A) (A) (A) (A) (A) (A)
                 (A) (A) (A) (A) (A) (A) (A) (A) (A) (A) (A) (A)
                 (A) (A) (A) (A) (A) (A) (A) (A) (A) (A) (A) (A)
                 (A) (A) (A) (A) (A) (A) (A) (A) (A) (A) (A) (A)
                 (A) (A) (A) (A) (A) (A) (A) (A) (A) (A) (A) (A)
                 (A) (A) (A) (A) (A) (A) (A) (A) (A) (A) (A) (A)
                 (A) (A) (A) (A) (A) (A) (A) (A) (A) (A) (A) (A)
                 (A) (A) (A) (A) (A) (A) (A) (A) (A) (A) (A) (A)
                 (A) (A) (A) (A) (A) (A) (A) (A) (A) (A) (A) (A)
                 (A) (A) (A) (A) (A) (A) (A) (A) (A) (A) (A) (A)
                 (A) (A) (A) (A) (A) (A) (A) (A) (A) (A) (A) (A)
                 (A) (A) (A) (A) (A) (A) (A) (A) (A) (A) (A) (A)
                 (A) (A) (A) (A) (A) (A) (A) (A) (A) (A) (A) (A)
                 (A) (A) (A) (A) (A) (A) (A) (A) (A) (A) (A) (A)
                 (A) (A) (A) (A) (A) (A) (A) (A) (A) (A) (A) (A)
                 (A) (A) (A) (A) (A) (A) (A) (A) (A) (A) (A) (A)
                 (A) (A) (A) (A) (A) (A) (A) (A) (A) (A) (A) (A)
                 (A) (A) (A) (A) (A) (A) (A) (A) (A) (A) (A) (A)
                 (A) (A) (A) (A) (A) (A) (A) (A) (A) (A) (A) (A)
                 (A) (A) (A) (A) (A) (A) (A) (A) (A) (A) (A) (A)
                 (A) (A) (A) (A) (A) (A) (A) (A) (A) (A) (A) (A)
                 (A) (A) (A) (A) (A) (A) (A) (A) (A) (A) (A) (A)
                 (A) (A) (A) (A) (A) (A) (A) (A) (A) (A) (A) (A)
                 (A) (A) (A) (A) (A) (A) (A) (A) (A) (A) (A) (A)
                 (A) (A) (A) (A) (A) (A) (A) (A) (A) (A) (A) (A)
                 (A) (A) (A) (A)
 The electronic state is 1-A.
 Alpha  occ. eigenvalues --  -88.87961 -88.87961 -88.87915 -88.87915 -10.21628
 Alpha  occ. eigenvalues --  -10.21628 -10.21612 -10.21612 -10.21131 -10.21131
 Alpha  occ. eigenvalues --  -10.21077 -10.21077 -10.19883 -10.19883 -10.19874
 Alpha  occ. eigenvalues --  -10.19874 -10.18887 -10.18887 -10.18874 -10.18874
 Alpha  occ. eigenvalues --  -10.18596 -10.18596 -10.18560 -10.18560 -10.18282
 Alpha  occ. eigenvalues --  -10.18282 -10.18280 -10.18280 -10.18149 -10.18149
 Alpha  occ. eigenvalues --  -10.18120 -10.18120  -7.96616  -7.96616  -7.96567
 Alpha  occ. eigenvalues --   -7.96567  -5.92946  -5.92946  -5.92897  -5.92897
 Alpha  occ. eigenvalues --   -5.92586  -5.92586  -5.92537  -5.92537  -5.92114
 Alpha  occ. eigenvalues --   -5.92114  -5.92065  -5.92065  -0.92131  -0.92131
 Alpha  occ. eigenvalues --   -0.88050  -0.88050  -0.83980  -0.83980  -0.81930
 Alpha  occ. eigenvalues --   -0.81929  -0.77599  -0.77599  -0.77197  -0.77197
 Alpha  occ. eigenvalues --   -0.73794  -0.73794  -0.71967  -0.71967  -0.69849
 Alpha  occ. eigenvalues --   -0.69849  -0.64449  -0.64449  -0.61375  -0.61375
 Alpha  occ. eigenvalues --   -0.59210  -0.59210  -0.58306  -0.58306  -0.56825
 Alpha  occ. eigenvalues --   -0.56825  -0.51267  -0.51267  -0.50059  -0.50059
 Alpha  occ. eigenvalues --   -0.48939  -0.48939  -0.47341  -0.47341  -0.45497
 Alpha  occ. eigenvalues --   -0.45497  -0.45339  -0.45339  -0.43834  -0.43834
 Alpha  occ. eigenvalues --   -0.43301  -0.43300  -0.42954  -0.42952  -0.40673
 Alpha  occ. eigenvalues --   -0.40673  -0.40343  -0.40343  -0.39025  -0.39023
 Alpha  occ. eigenvalues --   -0.37134  -0.37134  -0.36477  -0.36477  -0.36043
 Alpha  occ. eigenvalues --   -0.36043  -0.34592  -0.34592  -0.34394  -0.34393
 Alpha  occ. eigenvalues --   -0.34385  -0.34385  -0.32544  -0.32538  -0.28714
 Alpha  occ. eigenvalues --   -0.28711  -0.28048  -0.28048  -0.24814  -0.24814
 Alpha  occ. eigenvalues --   -0.22710  -0.22706  -0.20977  -0.20970
 Alpha virt. eigenvalues --   -0.05473  -0.05472  -0.02209  -0.02183  -0.01441
 Alpha virt. eigenvalues --   -0.01439  -0.00374  -0.00353   0.00680   0.00687
 Alpha virt. eigenvalues --    0.01985   0.01991   0.04168   0.04169   0.04293
 Alpha virt. eigenvalues --    0.04307   0.05066   0.05071   0.06391   0.06410
 Alpha virt. eigenvalues --    0.07511   0.07574   0.08024   0.08047   0.08504
 Alpha virt. eigenvalues --    0.08521   0.11412   0.11414   0.12283   0.12338
 Alpha virt. eigenvalues --    0.13012   0.13164   0.13246   0.13280   0.13331
 Alpha virt. eigenvalues --    0.13442   0.14151   0.14175   0.16002   0.16040
 Alpha virt. eigenvalues --    0.16306   0.16347   0.17515   0.18202   0.19369
 Alpha virt. eigenvalues --    0.19856   0.20835   0.20841   0.23161   0.23165
 Alpha virt. eigenvalues --    0.23315   0.23324   0.24476   0.24493   0.27040
 Alpha virt. eigenvalues --    0.27057   0.27710   0.27716   0.27825   0.27831
 Alpha virt. eigenvalues --    0.28578   0.28583   0.29146   0.29148   0.29619
 Alpha virt. eigenvalues --    0.29630   0.33029   0.33044   0.34618   0.34622
 Alpha virt. eigenvalues --    0.35993   0.35998   0.37296   0.37313   0.37600
 Alpha virt. eigenvalues --    0.37609   0.38368   0.38381   0.38949   0.38955
 Alpha virt. eigenvalues --    0.39032   0.39044   0.39920   0.39939   0.40283
 Alpha virt. eigenvalues --    0.40287   0.40761   0.40772   0.41791   0.41795
 Alpha virt. eigenvalues --    0.42244   0.42279   0.42670   0.42677   0.42819
 Alpha virt. eigenvalues --    0.42820   0.44266   0.44270   0.44605   0.44629
 Alpha virt. eigenvalues --    0.44749   0.44752   0.45542   0.45546   0.45726
 Alpha virt. eigenvalues --    0.45819   0.45957   0.45972   0.46014   0.46015
 Alpha virt. eigenvalues --    0.48540   0.48546   0.49457   0.49464   0.49613
 Alpha virt. eigenvalues --    0.49629   0.50903   0.50943   0.51761   0.51784
 Alpha virt. eigenvalues --    0.53408   0.53409   0.54960   0.54971   0.56452
 Alpha virt. eigenvalues --    0.56464   0.57307   0.57321   0.58204   0.58213
 Alpha virt. eigenvalues --    0.58832   0.58850   0.59231   0.59243   0.59572
 Alpha virt. eigenvalues --    0.59578   0.60053   0.60054   0.60489   0.60493
 Alpha virt. eigenvalues --    0.60575   0.60579   0.61791   0.61802   0.62200
 Alpha virt. eigenvalues --    0.62209   0.63768   0.63809   0.63825   0.63865
 Alpha virt. eigenvalues --    0.64804   0.64809   0.66253   0.66273   0.69735
 Alpha virt. eigenvalues --    0.69747   0.70359   0.70393   0.72026   0.72031
 Alpha virt. eigenvalues --    0.72405   0.72406   0.72926   0.72929   0.73309
 Alpha virt. eigenvalues --    0.73310   0.73803   0.73812   0.74779   0.74824
 Alpha virt. eigenvalues --    0.75949   0.75963   0.76718   0.76769   0.77663
 Alpha virt. eigenvalues --    0.77671   0.79001   0.79091   0.80298   0.80301
 Alpha virt. eigenvalues --    0.80332   0.80360   0.82001   0.82011   0.83383
 Alpha virt. eigenvalues --    0.83389   0.84367   0.84375   0.84815   0.84831
 Alpha virt. eigenvalues --    0.85911   0.85925   0.86135   0.86184   0.88433
 Alpha virt. eigenvalues --    0.88568   0.89073   0.89077   0.90451   0.90456
 Alpha virt. eigenvalues --    0.90906   0.90928   0.92433   0.92451   0.93626
 Alpha virt. eigenvalues --    0.93673   0.96126   0.96151   0.96888   0.96900
 Alpha virt. eigenvalues --    0.96911   0.96912   0.98852   0.98859   0.99561
 Alpha virt. eigenvalues --    0.99578   1.00425   1.00445   1.01841   1.01846
 Alpha virt. eigenvalues --    1.02995   1.03002   1.06217   1.06220   1.06535
 Alpha virt. eigenvalues --    1.06550   1.07698   1.07700   1.09070   1.09093
 Alpha virt. eigenvalues --    1.09111   1.09138   1.09518   1.09521   1.10886
 Alpha virt. eigenvalues --    1.10889   1.11438   1.11443   1.15900   1.15913
 Alpha virt. eigenvalues --    1.18418   1.18448   1.20425   1.20442   1.21987
 Alpha virt. eigenvalues --    1.21995   1.22469   1.22491   1.24703   1.24723
 Alpha virt. eigenvalues --    1.28112   1.28131   1.28689   1.28785   1.29121
 Alpha virt. eigenvalues --    1.29122   1.34949   1.34968   1.38859   1.38865
 Alpha virt. eigenvalues --    1.40730   1.40736   1.41641   1.41642   1.42939
 Alpha virt. eigenvalues --    1.42940   1.44348   1.44355   1.44970   1.44970
 Alpha virt. eigenvalues --    1.47300   1.47301   1.47929   1.47930   1.49098
 Alpha virt. eigenvalues --    1.49099   1.52542   1.52542   1.54001   1.54008
 Alpha virt. eigenvalues --    1.54107   1.54110   1.56082   1.56087   1.56307
 Alpha virt. eigenvalues --    1.56570   1.58051   1.58060   1.59032   1.59064
 Alpha virt. eigenvalues --    1.59796   1.59800   1.60617   1.60769   1.61170
 Alpha virt. eigenvalues --    1.61173   1.61527   1.61534   1.62313   1.62340
 Alpha virt. eigenvalues --    1.63143   1.63174   1.67222   1.67331   1.69452
 Alpha virt. eigenvalues --    1.69454   1.70513   1.70560   1.72107   1.72107
 Alpha virt. eigenvalues --    1.73014   1.73014   1.73538   1.73539   1.74719
 Alpha virt. eigenvalues --    1.74721   1.75777   1.75777   1.80350   1.80381
 Alpha virt. eigenvalues --    1.80593   1.80611   1.81716   1.81732   1.82506
 Alpha virt. eigenvalues --    1.82507   1.83412   1.83416   1.83961   1.83981
 Alpha virt. eigenvalues --    1.84391   1.84391   1.86850   1.86851   1.88932
 Alpha virt. eigenvalues --    1.88937   1.89519   1.89521   1.89592   1.89592
 Alpha virt. eigenvalues --    1.89983   1.89988   1.90965   1.90992   1.91082
 Alpha virt. eigenvalues --    1.91085   1.93815   1.93834   1.93958   1.93961
 Alpha virt. eigenvalues --    1.94039   1.94060   1.96302   1.96306   1.96345
 Alpha virt. eigenvalues --    1.96351   1.99032   1.99063   1.99644   1.99644
 Alpha virt. eigenvalues --    2.00211   2.00213   2.01271   2.01276   2.02600
 Alpha virt. eigenvalues --    2.02604   2.03598   2.03604   2.06668   2.06673
 Alpha virt. eigenvalues --    2.08202   2.08202   2.11098   2.11125   2.12172
 Alpha virt. eigenvalues --    2.12172   2.14270   2.14270   2.22581   2.22591
 Alpha virt. eigenvalues --    2.25313   2.25314   2.26459   2.26460   2.26760
 Alpha virt. eigenvalues --    2.26767   2.27791   2.27808   2.32807   2.32809
 Alpha virt. eigenvalues --    2.32956   2.32957   2.33029   2.33032   2.33433
 Alpha virt. eigenvalues --    2.33436   2.34156   2.34157   2.35914   2.35917
 Alpha virt. eigenvalues --    2.37616   2.37618   2.40625   2.40628   2.47995
 Alpha virt. eigenvalues --    2.48002   2.52146   2.52148   2.53713   2.53731
 Alpha virt. eigenvalues --    2.55639   2.55653   2.56496   2.56497   2.57412
 Alpha virt. eigenvalues --    2.57413   2.60012   2.60014   2.60355   2.60355
 Alpha virt. eigenvalues --    2.61537   2.61545   2.61749   2.61752   2.62306
 Alpha virt. eigenvalues --    2.62310   2.63857   2.63859   2.64602   2.64602
 Alpha virt. eigenvalues --    2.65276   2.65278   2.66049   2.66050   2.69056
 Alpha virt. eigenvalues --    2.69065   2.69080   2.69082   2.69147   2.69153
 Alpha virt. eigenvalues --    2.70540   2.70597   2.71842   2.71851   2.73682
 Alpha virt. eigenvalues --    2.73687   2.77519   2.77523   2.80143   2.80144
 Alpha virt. eigenvalues --    2.81502   2.81503   2.81796   2.81809   2.82354
 Alpha virt. eigenvalues --    2.82375   2.83331   2.83333   2.83739   2.83741
 Alpha virt. eigenvalues --    2.87818   2.87818   2.91866   2.91868   2.92527
 Alpha virt. eigenvalues --    2.92558   2.97184   2.97194   3.04132   3.04142
 Alpha virt. eigenvalues --    3.04456   3.04459   3.07454   3.07454   3.10539
 Alpha virt. eigenvalues --    3.10539   3.15665   3.15674   3.17342   3.17350
 Alpha virt. eigenvalues --    3.23528   3.23533   3.24428   3.24433   3.29826
 Alpha virt. eigenvalues --    3.29827   3.30428   3.30430   3.32061   3.32061
 Alpha virt. eigenvalues --    3.34553   3.34553   3.38878   3.38885   3.42789
 Alpha virt. eigenvalues --    3.42789   3.44739   3.44746   3.45923   3.45931
 Alpha virt. eigenvalues --    3.50656   3.50658   3.54717   3.54720   3.55981
 Alpha virt. eigenvalues --    3.55983   3.62811   3.62813   3.76126   3.76130
 Alpha virt. eigenvalues --    3.82352   3.82361   3.98732   3.98734   4.00576
 Alpha virt. eigenvalues --    4.00577   4.01744   4.01744   4.03940   4.03943
 Alpha virt. eigenvalues --    4.11639   4.11644   4.11997   4.11997   4.19943
 Alpha virt. eigenvalues --    4.19947   4.55109   4.55117   4.79855   4.79855
 Alpha virt. eigenvalues --    4.79982   4.79983   7.81289   7.81304   7.84126
 Alpha virt. eigenvalues --    7.84130  17.19628  17.19981  17.21163  17.21363
 Alpha virt. eigenvalues --   17.43883  17.43902  17.51362  17.51371  17.52460
 Alpha virt. eigenvalues --   17.52469  17.53552  17.53562  23.35529  23.35542
 Alpha virt. eigenvalues --   23.53968  23.53969  23.69081  23.69083  23.85812
 Alpha virt. eigenvalues --   23.85814  23.85980  23.85982  23.90313  23.90313
 Alpha virt. eigenvalues --   23.92243  23.92243  23.98295  23.98295  24.01274
 Alpha virt. eigenvalues --   24.01274  24.03907  24.03907  24.07438  24.07438
 Alpha virt. eigenvalues --   24.07561  24.07561  24.14811  24.14812  24.14922
 Alpha virt. eigenvalues --   24.14923 188.92684 188.92703 188.95562 188.95566
          Condensed to atoms (all electrons):
               1          2          3          4          5          6
     1  S   15.373258   0.009491  -0.061567   0.005898  -0.000100   0.009398
     2  S    0.009491  15.364084  -0.000171  -0.000038   0.000327   0.002409
     3  C   -0.061567  -0.000171   4.862668   0.512494  -0.040661  -0.053510
     4  C    0.005898  -0.000038   0.512494   4.880817   0.492420  -0.051811
     5  C   -0.000100   0.000327  -0.040661   0.492420   4.878163   0.511940
     6  C    0.009398   0.002409  -0.053510  -0.051811   0.511940   4.872751
     7  C    0.002359   0.009406  -0.000001   0.000000  -0.000000  -0.000001
     8  C    0.000327  -0.000116   0.000000  -0.000000   0.000000  -0.000000
     9  C   -0.000039   0.005895  -0.000000   0.000000  -0.000000   0.000000
    10  C   -0.000172  -0.061379   0.000000  -0.000000   0.000000  -0.000000
    11  C    0.008693   0.307229   0.000033  -0.000002   0.000002  -0.000302
    12  C   -0.070711  -0.088033  -0.000512   0.000027  -0.000018   0.000093
    13  C    0.316237  -0.092073  -0.000471  -0.000023  -0.000614   0.011520
    14  C   -0.092111   0.317647   0.017234  -0.001028   0.013308  -0.088828
    15  C   -0.088287  -0.070495   0.006427  -0.049895  -0.030030   0.486693
    16  C    0.305994   0.008611   0.443546  -0.048026  -0.054644  -0.045455
    17  H   -0.003206   0.000023   0.419503  -0.037212   0.007352  -0.000573
    18  H    0.000110  -0.000002   0.007015  -0.042093   0.411177  -0.037834
    19  H   -0.000642   0.003269  -0.000894   0.007524  -0.039249   0.419477
    20  H    0.003292  -0.000638  -0.000003   0.000000  -0.000000   0.000000
    21  H   -0.000002   0.000109   0.000000  -0.000000  -0.000000   0.000000
    22  H   -0.000003  -0.000370  -0.000000   0.000000   0.000000   0.000000
    23  H    0.000022  -0.003166   0.000000  -0.000000   0.000000  -0.000000
    24  H   -0.000372  -0.000003  -0.041406   0.413855  -0.042776   0.007643
    25  S    0.000001   0.000010  -0.000000   0.000000   0.000000   0.000002
    26  S    0.000000   0.000001  -0.000000   0.000000  -0.000000  -0.000000
    27  C   -0.000000  -0.000000   0.000000  -0.000000   0.000000  -0.000000
    28  C   -0.000000   0.000000   0.000000  -0.000000  -0.000000  -0.000000
    29  C    0.000000   0.000000  -0.000000   0.000000   0.000000  -0.000000
    30  C    0.000000   0.000000  -0.000000  -0.000000   0.000000   0.000000
    31  C   -0.000000   0.000002  -0.000000   0.000000   0.000000   0.000000
    32  C   -0.000000   0.000000  -0.000000   0.000000  -0.000000   0.000000
    33  C    0.000000   0.000000   0.000000  -0.000000   0.000000   0.000000
    34  C   -0.000000  -0.000000   0.000000   0.000000  -0.000000  -0.000000
    35  C    0.000000   0.000000   0.000000   0.000000  -0.000000  -0.000000
    36  C    0.000000   0.000001  -0.000000  -0.000000   0.000000   0.000000
    37  C   -0.000000  -0.000000   0.000000  -0.000000   0.000000  -0.000000
    38  C   -0.000000  -0.000000   0.000000  -0.000000   0.000000   0.000000
    39  C   -0.000000  -0.000000   0.000000   0.000000  -0.000000  -0.000000
    40  C   -0.000000  -0.000000   0.000000   0.000000  -0.000000  -0.000000
    41  H    0.000000   0.000000   0.000000   0.000000   0.000000   0.000000
    42  H   -0.000000  -0.000000   0.000000   0.000000   0.000000  -0.000000
    43  H    0.000000   0.000000  -0.000000  -0.000000   0.000000   0.000000
    44  H    0.000000   0.000001  -0.000000  -0.000000   0.000000   0.000000
    45  H   -0.000000  -0.000000  -0.000000   0.000000  -0.000000  -0.000000
    46  H    0.000000   0.000000   0.000000  -0.000000   0.000000   0.000000
    47  H   -0.000000  -0.000000  -0.000000   0.000000   0.000000   0.000000
    48  H   -0.000000   0.000000  -0.000000  -0.000000  -0.000000  -0.000000
               7          8          9         10         11         12
     1  S    0.002359   0.000327  -0.000039  -0.000172   0.008693  -0.070711
     2  S    0.009406  -0.000116   0.005895  -0.061379   0.307229  -0.088033
     3  C   -0.000001   0.000000  -0.000000   0.000000   0.000033  -0.000512
     4  C    0.000000  -0.000000   0.000000  -0.000000  -0.000002   0.000027
     5  C   -0.000000   0.000000  -0.000000   0.000000   0.000002  -0.000018
     6  C   -0.000001  -0.000000   0.000000  -0.000000  -0.000302   0.000093
     7  C    4.877014   0.511259  -0.051619  -0.053876  -0.044847   0.485478
     8  C    0.511259   4.880077   0.492218  -0.040411  -0.054806  -0.029707
     9  C   -0.051619   0.492218   4.880830   0.512318  -0.047755  -0.050262
    10  C   -0.053876  -0.040411   0.512318   4.861268   0.443289   0.007057
    11  C   -0.044847  -0.054806  -0.047755   0.443289   5.388851   0.411640
    12  C    0.485478  -0.029707  -0.050262   0.007057   0.411640   4.951069
    13  C   -0.089614   0.013358  -0.001061   0.017371  -0.097207   0.392891
    14  C    0.011576  -0.000615  -0.000021  -0.000514  -0.086311  -0.014515
    15  C    0.000096  -0.000018   0.000027  -0.000510   0.003483   0.021067
    16  C   -0.000301   0.000002  -0.000002   0.000034  -0.000008   0.003429
    17  H   -0.000000   0.000000  -0.000000   0.000000   0.000001  -0.000009
    18  H    0.000000  -0.000000  -0.000000   0.000000  -0.000000  -0.000000
    19  H    0.000000  -0.000000   0.000000  -0.000003  -0.000107   0.000012
    20  H    0.419716  -0.039672   0.007567  -0.000915   0.008954  -0.045780
    21  H   -0.038207   0.411163  -0.041973   0.007019   0.000276   0.007573
    22  H    0.007642  -0.042883   0.413856  -0.041210   0.008881  -0.000338
    23  H   -0.000565   0.007337  -0.037168   0.419326  -0.047112   0.007242
    24  H    0.000000   0.000000   0.000000  -0.000000  -0.000000  -0.000000
    25  S    0.000000   0.000000   0.000000  -0.000000  -0.000000  -0.000000
    26  S    0.000000   0.000000  -0.000000  -0.000000  -0.000000  -0.000000
    27  C   -0.000000   0.000000  -0.000000  -0.000000   0.000000  -0.000000
    28  C   -0.000000   0.000000  -0.000000  -0.000000   0.000000  -0.000000
    29  C    0.000000  -0.000000   0.000000   0.000000  -0.000000   0.000000
    30  C    0.000000   0.000000  -0.000000  -0.000000  -0.000000  -0.000000
    31  C    0.000000  -0.000000  -0.000000  -0.000000  -0.000000  -0.000000
    32  C    0.000000   0.000000  -0.000000   0.000000  -0.000000  -0.000000
    33  C   -0.000000   0.000000  -0.000000  -0.000000   0.000000   0.000000
    34  C   -0.000000  -0.000000   0.000000   0.000000   0.000000   0.000000
    35  C    0.000000   0.000000  -0.000000  -0.000000   0.000000  -0.000000
    36  C   -0.000000  -0.000000   0.000000   0.000000  -0.000000  -0.000000
    37  C   -0.000000  -0.000000   0.000000   0.000000  -0.000000   0.000000
    38  C   -0.000000   0.000000  -0.000000   0.000000   0.000000   0.000000
    39  C   -0.000000   0.000000  -0.000000  -0.000000   0.000000  -0.000000
    40  C   -0.000000  -0.000000   0.000000   0.000000  -0.000000   0.000000
    41  H   -0.000000   0.000000   0.000000  -0.000000  -0.000000  -0.000000
    42  H   -0.000000  -0.000000   0.000000   0.000000  -0.000000   0.000000
    43  H    0.000000   0.000000  -0.000000  -0.000000   0.000000  -0.000000
    44  H    0.000000   0.000000  -0.000000  -0.000000   0.000000  -0.000000
    45  H   -0.000000   0.000000   0.000000   0.000000  -0.000000  -0.000000
    46  H    0.000000   0.000000  -0.000000  -0.000000   0.000000   0.000000
    47  H   -0.000000   0.000000   0.000000   0.000000  -0.000000  -0.000000
    48  H   -0.000000   0.000000  -0.000000  -0.000000   0.000000  -0.000000
              13         14         15         16         17         18
     1  S    0.316237  -0.092111  -0.088287   0.305994  -0.003206   0.000110
     2  S   -0.092073   0.317647  -0.070495   0.008611   0.000023  -0.000002
     3  C   -0.000471   0.017234   0.006427   0.443546   0.419503   0.007015
     4  C   -0.000023  -0.001028  -0.049895  -0.048026  -0.037212  -0.042093
     5  C   -0.000614   0.013308  -0.030030  -0.054644   0.007352   0.411177
     6  C    0.011520  -0.088828   0.486693  -0.045455  -0.000573  -0.037834
     7  C   -0.089614   0.011576   0.000096  -0.000301  -0.000000   0.000000
     8  C    0.013358  -0.000615  -0.000018   0.000002   0.000000  -0.000000
     9  C   -0.001061  -0.000021   0.000027  -0.000002  -0.000000  -0.000000
    10  C    0.017371  -0.000514  -0.000510   0.000034   0.000000   0.000000
    11  C   -0.097207  -0.086311   0.003483  -0.000008   0.000001  -0.000000
    12  C    0.392891  -0.014515   0.021067   0.003429  -0.000009  -0.000000
    13  C    5.460515   0.363403  -0.014510  -0.086780  -0.000117   0.000016
    14  C    0.363403   5.456377   0.393339  -0.096412  -0.000334  -0.000470
    15  C   -0.014510   0.393339   4.947909   0.412386   0.007232   0.007539
    16  C   -0.086780  -0.096412   0.412386   5.390603  -0.047567   0.000277
    17  H   -0.000117  -0.000334   0.007232  -0.047567   0.566145  -0.000322
    18  H    0.000016  -0.000470   0.007539   0.000277  -0.000322   0.572166
    19  H    0.000094  -0.011922  -0.045395   0.008905   0.000064  -0.007630
    20  H   -0.012047   0.000092   0.000013  -0.000108   0.000000   0.000000
    21  H   -0.000469   0.000016  -0.000000  -0.000000  -0.000000   0.000000
    22  H   -0.000002   0.000010  -0.000000  -0.000000   0.000000   0.000000
    23  H   -0.000333  -0.000117  -0.000009   0.000001   0.000000  -0.000000
    24  H    0.000010  -0.000002  -0.000338   0.008904  -0.007787  -0.007477
    25  S   -0.000000  -0.000000   0.000001   0.000000  -0.000000  -0.000000
    26  S   -0.000000  -0.000000   0.000000   0.000000  -0.000000  -0.000000
    27  C    0.000000   0.000000   0.000000  -0.000000   0.000000   0.000000
    28  C   -0.000000   0.000000   0.000000  -0.000000   0.000000   0.000000
    29  C    0.000000  -0.000000  -0.000000   0.000000   0.000000   0.000000
    30  C   -0.000000  -0.000000  -0.000000   0.000000  -0.000000  -0.000000
    31  C    0.000000  -0.000000   0.000000  -0.000000   0.000000  -0.000000
    32  C    0.000000   0.000000   0.000000  -0.000000   0.000000  -0.000000
    33  C   -0.000000  -0.000000  -0.000000   0.000000   0.000000   0.000000
    34  C    0.000000   0.000000  -0.000000   0.000000  -0.000000  -0.000000
    35  C    0.000000  -0.000000  -0.000000  -0.000000  -0.000000  -0.000000
    36  C    0.000000   0.000000  -0.000000  -0.000000   0.000000   0.000000
    37  C    0.000000   0.000000   0.000000  -0.000000   0.000000   0.000000
    38  C   -0.000000   0.000000   0.000000   0.000000   0.000000   0.000000
    39  C    0.000000   0.000000  -0.000000  -0.000000  -0.000000  -0.000000
    40  C    0.000000  -0.000000  -0.000000   0.000000  -0.000000  -0.000000
    41  H    0.000000  -0.000000  -0.000000  -0.000000  -0.000000   0.000000
    42  H    0.000000  -0.000000  -0.000000  -0.000000   0.000000  -0.000000
    43  H   -0.000000  -0.000000   0.000000   0.000000   0.000000   0.000000
    44  H   -0.000000  -0.000000  -0.000000   0.000000   0.000000  -0.000000
    45  H    0.000000   0.000000   0.000000  -0.000000  -0.000000  -0.000000
    46  H   -0.000000  -0.000000  -0.000000   0.000000  -0.000000   0.000000
    47  H    0.000000   0.000000   0.000000  -0.000000   0.000000  -0.000000
    48  H   -0.000000   0.000000   0.000000   0.000000  -0.000000   0.000000
              19         20         21         22         23         24
     1  S   -0.000642   0.003292  -0.000002  -0.000003   0.000022  -0.000372
     2  S    0.003269  -0.000638   0.000109  -0.000370  -0.003166  -0.000003
     3  C   -0.000894  -0.000003   0.000000  -0.000000   0.000000  -0.041406
     4  C    0.007524   0.000000  -0.000000   0.000000  -0.000000   0.413855
     5  C   -0.039249  -0.000000  -0.000000   0.000000   0.000000  -0.042776
     6  C    0.419477   0.000000   0.000000   0.000000  -0.000000   0.007643
     7  C    0.000000   0.419716  -0.038207   0.007642  -0.000565   0.000000
     8  C   -0.000000  -0.039672   0.411163  -0.042883   0.007337   0.000000
     9  C    0.000000   0.007567  -0.041973   0.413856  -0.037168   0.000000
    10  C   -0.000003  -0.000915   0.007019  -0.041210   0.419326  -0.000000
    11  C   -0.000107   0.008954   0.000276   0.008881  -0.047112  -0.000000
    12  C    0.000012  -0.045780   0.007573  -0.000338   0.007242  -0.000000
    13  C    0.000094  -0.012047  -0.000469  -0.000002  -0.000333   0.000010
    14  C   -0.011922   0.000092   0.000016   0.000010  -0.000117  -0.000002
    15  C   -0.045395   0.000013  -0.000000  -0.000000  -0.000009  -0.000338
    16  C    0.008905  -0.000108  -0.000000  -0.000000   0.000001   0.008904
    17  H    0.000064   0.000000  -0.000000   0.000000   0.000000  -0.007787
    18  H   -0.007630   0.000000   0.000000   0.000000  -0.000000  -0.007477
    19  H    0.569756   0.000000   0.000000   0.000000   0.000000  -0.000307
    20  H    0.000000   0.572222  -0.007676  -0.000309   0.000064   0.000000
    21  H    0.000000  -0.007676   0.573031  -0.007485  -0.000321   0.000000
    22  H    0.000000  -0.000309  -0.007485   0.571722  -0.007753  -0.000000
    23  H    0.000000   0.000064  -0.000321  -0.007753   0.564635   0.000000
    24  H   -0.000307   0.000000   0.000000  -0.000000   0.000000   0.571934
    25  S    0.000001   0.000000  -0.000000   0.000000   0.000000   0.000000
    26  S    0.000000   0.000000  -0.000000  -0.000000   0.000000   0.000000
    27  C   -0.000000  -0.000000   0.000000  -0.000000  -0.000000  -0.000000
    28  C   -0.000000  -0.000000   0.000000  -0.000000   0.000000  -0.000000
    29  C    0.000000   0.000000  -0.000000   0.000000   0.000000   0.000000
    30  C    0.000000   0.000000  -0.000000  -0.000000  -0.000000   0.000000
    31  C    0.000000   0.000000  -0.000000  -0.000000   0.000000   0.000000
    32  C    0.000000   0.000000   0.000000  -0.000000   0.000000   0.000000
    33  C   -0.000000  -0.000000   0.000000  -0.000000   0.000000  -0.000000
    34  C   -0.000000  -0.000000   0.000000  -0.000000   0.000000   0.000000
    35  C    0.000000   0.000000  -0.000000   0.000000  -0.000000   0.000000
    36  C   -0.000000   0.000000  -0.000000   0.000000  -0.000000  -0.000000
    37  C   -0.000000  -0.000000  -0.000000   0.000000  -0.000000  -0.000000
    38  C   -0.000000  -0.000000   0.000000  -0.000000   0.000000  -0.000000
    39  C   -0.000000  -0.000000   0.000000  -0.000000  -0.000000   0.000000
    40  C    0.000000   0.000000  -0.000000   0.000000  -0.000000   0.000000
    41  H    0.000000   0.000000  -0.000000  -0.000000   0.000000   0.000000
    42  H    0.000000   0.000000  -0.000000   0.000000  -0.000000   0.000000
    43  H   -0.000000  -0.000000   0.000000  -0.000000   0.000000  -0.000000
    44  H    0.000000  -0.000000   0.000000  -0.000000   0.000000  -0.000000
    45  H   -0.000000   0.000000  -0.000000   0.000000   0.000000   0.000000
    46  H   -0.000000  -0.000000   0.000000  -0.000000   0.000000  -0.000000
    47  H    0.000000   0.000000   0.000000  -0.000000  -0.000000  -0.000000
    48  H   -0.000000  -0.000000   0.000000   0.000000  -0.000000  -0.000000
              25         26         27         28         29         30
     1  S    0.000001   0.000000  -0.000000  -0.000000   0.000000   0.000000
     2  S    0.000010   0.000001  -0.000000   0.000000   0.000000   0.000000
     3  C   -0.000000  -0.000000   0.000000   0.000000  -0.000000  -0.000000
     4  C    0.000000   0.000000  -0.000000  -0.000000   0.000000  -0.000000
     5  C    0.000000  -0.000000   0.000000  -0.000000   0.000000   0.000000
     6  C    0.000002  -0.000000  -0.000000  -0.000000  -0.000000   0.000000
     7  C    0.000000   0.000000  -0.000000  -0.000000   0.000000   0.000000
     8  C    0.000000   0.000000   0.000000   0.000000  -0.000000   0.000000
     9  C    0.000000  -0.000000  -0.000000  -0.000000   0.000000  -0.000000
    10  C   -0.000000  -0.000000  -0.000000  -0.000000   0.000000  -0.000000
    11  C   -0.000000  -0.000000   0.000000   0.000000  -0.000000  -0.000000
    12  C   -0.000000  -0.000000  -0.000000  -0.000000   0.000000  -0.000000
    13  C   -0.000000  -0.000000   0.000000  -0.000000   0.000000  -0.000000
    14  C   -0.000000  -0.000000   0.000000   0.000000  -0.000000  -0.000000
    15  C    0.000001   0.000000   0.000000   0.000000  -0.000000  -0.000000
    16  C    0.000000   0.000000  -0.000000  -0.000000   0.000000   0.000000
    17  H   -0.000000  -0.000000   0.000000   0.000000   0.000000  -0.000000
    18  H   -0.000000  -0.000000   0.000000   0.000000   0.000000  -0.000000
    19  H    0.000001   0.000000  -0.000000  -0.000000   0.000000   0.000000
    20  H    0.000000   0.000000  -0.000000  -0.000000   0.000000   0.000000
    21  H   -0.000000  -0.000000   0.000000   0.000000  -0.000000  -0.000000
    22  H    0.000000  -0.000000  -0.000000  -0.000000   0.000000  -0.000000
    23  H    0.000000   0.000000  -0.000000   0.000000   0.000000  -0.000000
    24  H    0.000000   0.000000  -0.000000  -0.000000   0.000000   0.000000
    25  S   15.364082   0.009491  -0.061379   0.005895  -0.000116   0.009405
    26  S    0.009491  15.373260  -0.000172  -0.000039   0.000327   0.002359
    27  C   -0.061379  -0.000172   4.861268   0.512319  -0.040411  -0.053875
    28  C    0.005895  -0.000039   0.512319   4.880829   0.492218  -0.051619
    29  C   -0.000116   0.000327  -0.040411   0.492218   4.880077   0.511259
    30  C    0.009405   0.002359  -0.053875  -0.051619   0.511259   4.877013
    31  C    0.002409   0.009398  -0.000000   0.000000  -0.000000  -0.000001
    32  C    0.000327  -0.000100   0.000000  -0.000000   0.000000  -0.000000
    33  C   -0.000038   0.005898  -0.000000   0.000000  -0.000000   0.000000
    34  C   -0.000171  -0.061567   0.000000  -0.000000   0.000000  -0.000001
    35  C    0.008611   0.305993   0.000034  -0.000002   0.000002  -0.000301
    36  C   -0.070495  -0.088287  -0.000510   0.000027  -0.000018   0.000096
    37  C    0.317647  -0.092111  -0.000514  -0.000021  -0.000615   0.011576
    38  C   -0.092073   0.316237   0.017371  -0.001061   0.013358  -0.089614
    39  C   -0.088033  -0.070711   0.007056  -0.050261  -0.029708   0.485479
    40  C    0.307229   0.008693   0.443290  -0.047756  -0.054805  -0.044848
    41  H   -0.003166   0.000022   0.419326  -0.037168   0.007337  -0.000565
    42  H    0.000109  -0.000002   0.007019  -0.041973   0.411163  -0.038207
    43  H   -0.000638   0.003292  -0.000915   0.007567  -0.039672   0.419716
    44  H    0.003269  -0.000642  -0.000003   0.000000  -0.000000   0.000000
    45  H   -0.000002   0.000110   0.000000  -0.000000  -0.000000   0.000000
    46  H   -0.000003  -0.000372  -0.000000   0.000000   0.000000   0.000000
    47  H    0.000023  -0.003207   0.000000  -0.000000   0.000000  -0.000000
    48  H   -0.000370  -0.000003  -0.041210   0.413856  -0.042883   0.007642
              31         32         33         34         35         36
     1  S   -0.000000  -0.000000   0.000000  -0.000000   0.000000   0.000000
     2  S    0.000002   0.000000   0.000000  -0.000000   0.000000   0.000001
     3  C   -0.000000  -0.000000   0.000000   0.000000   0.000000  -0.000000
     4  C    0.000000   0.000000  -0.000000   0.000000   0.000000  -0.000000
     5  C    0.000000  -0.000000   0.000000  -0.000000  -0.000000   0.000000
     6  C    0.000000   0.000000   0.000000  -0.000000  -0.000000   0.000000
     7  C    0.000000   0.000000  -0.000000  -0.000000   0.000000  -0.000000
     8  C   -0.000000   0.000000   0.000000  -0.000000   0.000000  -0.000000
     9  C   -0.000000  -0.000000  -0.000000   0.000000  -0.000000   0.000000
    10  C   -0.000000   0.000000  -0.000000   0.000000  -0.000000   0.000000
    11  C   -0.000000  -0.000000   0.000000   0.000000   0.000000  -0.000000
    12  C   -0.000000  -0.000000   0.000000   0.000000  -0.000000  -0.000000
    13  C    0.000000   0.000000  -0.000000   0.000000   0.000000   0.000000
    14  C   -0.000000   0.000000  -0.000000   0.000000  -0.000000   0.000000
    15  C    0.000000   0.000000  -0.000000  -0.000000  -0.000000  -0.000000
    16  C   -0.000000  -0.000000   0.000000   0.000000  -0.000000  -0.000000
    17  H    0.000000   0.000000   0.000000  -0.000000  -0.000000   0.000000
    18  H   -0.000000  -0.000000   0.000000  -0.000000  -0.000000   0.000000
    19  H    0.000000   0.000000  -0.000000  -0.000000   0.000000  -0.000000
    20  H    0.000000   0.000000  -0.000000  -0.000000   0.000000   0.000000
    21  H   -0.000000   0.000000   0.000000   0.000000  -0.000000  -0.000000
    22  H   -0.000000  -0.000000  -0.000000  -0.000000   0.000000   0.000000
    23  H    0.000000   0.000000   0.000000   0.000000  -0.000000  -0.000000
    24  H    0.000000   0.000000  -0.000000   0.000000   0.000000  -0.000000
    25  S    0.002409   0.000327  -0.000038  -0.000171   0.008611  -0.070495
    26  S    0.009398  -0.000100   0.005898  -0.061567   0.305993  -0.088287
    27  C   -0.000000   0.000000  -0.000000   0.000000   0.000034  -0.000510
    28  C    0.000000  -0.000000   0.000000  -0.000000  -0.000002   0.000027
    29  C   -0.000000   0.000000  -0.000000   0.000000   0.000002  -0.000018
    30  C   -0.000001  -0.000000   0.000000  -0.000001  -0.000301   0.000096
    31  C    4.872751   0.511939  -0.051811  -0.053511  -0.045454   0.486692
    32  C    0.511939   4.878163   0.492420  -0.040661  -0.054644  -0.030029
    33  C   -0.051811   0.492420   4.880818   0.512493  -0.048025  -0.049896
    34  C   -0.053511  -0.040661   0.512493   4.862669   0.443545   0.006428
    35  C   -0.045454  -0.054644  -0.048025   0.443545   5.390603   0.412385
    36  C    0.486692  -0.030029  -0.049896   0.006428   0.412385   4.947911
    37  C   -0.088828   0.013308  -0.001028   0.017234  -0.096413   0.393338
    38  C    0.011520  -0.000614  -0.000023  -0.000471  -0.086779  -0.014510
    39  C    0.000093  -0.000018   0.000027  -0.000512   0.003429   0.021067
    40  C   -0.000302   0.000002  -0.000002   0.000033  -0.000008   0.003483
    41  H   -0.000000   0.000000  -0.000000   0.000000   0.000001  -0.000009
    42  H    0.000000  -0.000000  -0.000000   0.000000  -0.000000  -0.000000
    43  H    0.000000  -0.000000   0.000000  -0.000003  -0.000108   0.000013
    44  H    0.419477  -0.039249   0.007524  -0.000894   0.008905  -0.045395
    45  H   -0.037834   0.411177  -0.042093   0.007015   0.000277   0.007539
    46  H    0.007643  -0.042776   0.413855  -0.041406   0.008904  -0.000338
    47  H   -0.000573   0.007352  -0.037212   0.419503  -0.047567   0.007232
    48  H    0.000000   0.000000   0.000000  -0.000000  -0.000000  -0.000000
              37         38         39         40         41         42
     1  S   -0.000000  -0.000000  -0.000000  -0.000000   0.000000  -0.000000
     2  S   -0.000000  -0.000000  -0.000000  -0.000000   0.000000  -0.000000
     3  C    0.000000   0.000000   0.000000   0.000000   0.000000   0.000000
     4  C   -0.000000  -0.000000   0.000000   0.000000   0.000000   0.000000
     5  C    0.000000   0.000000  -0.000000  -0.000000   0.000000   0.000000
     6  C   -0.000000   0.000000  -0.000000  -0.000000   0.000000  -0.000000
     7  C   -0.000000  -0.000000  -0.000000  -0.000000  -0.000000  -0.000000
     8  C   -0.000000   0.000000   0.000000  -0.000000   0.000000  -0.000000
     9  C    0.000000  -0.000000  -0.000000   0.000000   0.000000   0.000000
    10  C    0.000000   0.000000  -0.000000   0.000000  -0.000000   0.000000
    11  C   -0.000000   0.000000   0.000000  -0.000000  -0.000000  -0.000000
    12  C    0.000000   0.000000  -0.000000   0.000000  -0.000000   0.000000
    13  C    0.000000  -0.000000   0.000000   0.000000   0.000000   0.000000
    14  C    0.000000   0.000000   0.000000  -0.000000  -0.000000  -0.000000
    15  C    0.000000   0.000000  -0.000000  -0.000000  -0.000000  -0.000000
    16  C   -0.000000   0.000000  -0.000000   0.000000  -0.000000  -0.000000
    17  H    0.000000   0.000000  -0.000000  -0.000000  -0.000000   0.000000
    18  H    0.000000   0.000000  -0.000000  -0.000000   0.000000  -0.000000
    19  H   -0.000000  -0.000000  -0.000000   0.000000   0.000000   0.000000
    20  H   -0.000000  -0.000000  -0.000000   0.000000   0.000000   0.000000
    21  H   -0.000000   0.000000   0.000000  -0.000000  -0.000000  -0.000000
    22  H    0.000000  -0.000000  -0.000000   0.000000  -0.000000   0.000000
    23  H   -0.000000   0.000000  -0.000000  -0.000000   0.000000  -0.000000
    24  H   -0.000000  -0.000000   0.000000   0.000000   0.000000   0.000000
    25  S    0.317647  -0.092073  -0.088033   0.307229  -0.003166   0.000109
    26  S   -0.092111   0.316237  -0.070711   0.008693   0.000022  -0.000002
    27  C   -0.000514   0.017371   0.007056   0.443290   0.419326   0.007019
    28  C   -0.000021  -0.001061  -0.050261  -0.047756  -0.037168  -0.041973
    29  C   -0.000615   0.013358  -0.029708  -0.054805   0.007337   0.411163
    30  C    0.011576  -0.089614   0.485479  -0.044848  -0.000565  -0.038207
    31  C   -0.088828   0.011520   0.000093  -0.000302  -0.000000   0.000000
    32  C    0.013308  -0.000614  -0.000018   0.000002   0.000000  -0.000000
    33  C   -0.001028  -0.000023   0.000027  -0.000002  -0.000000  -0.000000
    34  C    0.017234  -0.000471  -0.000512   0.000033   0.000000   0.000000
    35  C   -0.096413  -0.086779   0.003429  -0.000008   0.000001  -0.000000
    36  C    0.393338  -0.014510   0.021067   0.003483  -0.000009  -0.000000
    37  C    5.456379   0.363403  -0.014515  -0.086311  -0.000117   0.000016
    38  C    0.363403   5.460513   0.392893  -0.097207  -0.000333  -0.000469
    39  C   -0.014515   0.392893   4.951067   0.411640   0.007242   0.007573
    40  C   -0.086311  -0.097207   0.411640   5.388850  -0.047112   0.000276
    41  H   -0.000117  -0.000333   0.007242  -0.047112   0.564635  -0.000321
    42  H    0.000016  -0.000469   0.007573   0.000276  -0.000321   0.573031
    43  H    0.000092  -0.012047  -0.045780   0.008954   0.000064  -0.007676
    44  H   -0.011922   0.000094   0.000012  -0.000107   0.000000   0.000000
    45  H   -0.000470   0.000016  -0.000000  -0.000000  -0.000000   0.000000
    46  H   -0.000002   0.000010  -0.000000  -0.000000   0.000000   0.000000
    47  H   -0.000334  -0.000117  -0.000009   0.000001   0.000000  -0.000000
    48  H    0.000010  -0.000002  -0.000338   0.008881  -0.007753  -0.007485
              43         44         45         46         47         48
     1  S    0.000000   0.000000  -0.000000   0.000000  -0.000000  -0.000000
     2  S    0.000000   0.000001  -0.000000   0.000000  -0.000000   0.000000
     3  C   -0.000000  -0.000000  -0.000000   0.000000  -0.000000  -0.000000
     4  C   -0.000000  -0.000000   0.000000  -0.000000   0.000000  -0.000000
     5  C    0.000000   0.000000  -0.000000   0.000000   0.000000  -0.000000
     6  C    0.000000   0.000000  -0.000000   0.000000   0.000000  -0.000000
     7  C    0.000000   0.000000  -0.000000   0.000000  -0.000000  -0.000000
     8  C    0.000000   0.000000   0.000000   0.000000   0.000000   0.000000
     9  C   -0.000000  -0.000000   0.000000  -0.000000   0.000000  -0.000000
    10  C   -0.000000  -0.000000   0.000000  -0.000000   0.000000  -0.000000
    11  C    0.000000   0.000000  -0.000000   0.000000  -0.000000   0.000000
    12  C   -0.000000  -0.000000  -0.000000   0.000000  -0.000000  -0.000000
    13  C   -0.000000  -0.000000   0.000000  -0.000000   0.000000  -0.000000
    14  C   -0.000000  -0.000000   0.000000  -0.000000   0.000000   0.000000
    15  C    0.000000  -0.000000   0.000000  -0.000000   0.000000   0.000000
    16  C    0.000000   0.000000  -0.000000   0.000000  -0.000000   0.000000
    17  H    0.000000   0.000000  -0.000000  -0.000000   0.000000  -0.000000
    18  H    0.000000  -0.000000  -0.000000   0.000000  -0.000000   0.000000
    19  H   -0.000000   0.000000  -0.000000  -0.000000   0.000000  -0.000000
    20  H   -0.000000  -0.000000   0.000000  -0.000000   0.000000  -0.000000
    21  H    0.000000   0.000000  -0.000000   0.000000   0.000000   0.000000
    22  H   -0.000000  -0.000000   0.000000  -0.000000  -0.000000   0.000000
    23  H    0.000000   0.000000   0.000000   0.000000  -0.000000  -0.000000
    24  H   -0.000000  -0.000000   0.000000  -0.000000  -0.000000  -0.000000
    25  S   -0.000638   0.003269  -0.000002  -0.000003   0.000023  -0.000370
    26  S    0.003292  -0.000642   0.000110  -0.000372  -0.003207  -0.000003
    27  C   -0.000915  -0.000003   0.000000  -0.000000   0.000000  -0.041210
    28  C    0.007567   0.000000  -0.000000   0.000000  -0.000000   0.413856
    29  C   -0.039672  -0.000000  -0.000000   0.000000   0.000000  -0.042883
    30  C    0.419716   0.000000   0.000000   0.000000  -0.000000   0.007642
    31  C    0.000000   0.419477  -0.037834   0.007643  -0.000573   0.000000
    32  C   -0.000000  -0.039249   0.411177  -0.042776   0.007352   0.000000
    33  C    0.000000   0.007524  -0.042093   0.413855  -0.037212   0.000000
    34  C   -0.000003  -0.000894   0.007015  -0.041406   0.419503  -0.000000
    35  C   -0.000108   0.008905   0.000277   0.008904  -0.047567  -0.000000
    36  C    0.000013  -0.045395   0.007539  -0.000338   0.007232  -0.000000
    37  C    0.000092  -0.011922  -0.000470  -0.000002  -0.000334   0.000010
    38  C   -0.012047   0.000094   0.000016   0.000010  -0.000117  -0.000002
    39  C   -0.045780   0.000012  -0.000000  -0.000000  -0.000009  -0.000338
    40  C    0.008954  -0.000107  -0.000000  -0.000000   0.000001   0.008881
    41  H    0.000064   0.000000  -0.000000   0.000000   0.000000  -0.007753
    42  H   -0.007676   0.000000   0.000000   0.000000  -0.000000  -0.007485
    43  H    0.572222   0.000000   0.000000   0.000000   0.000000  -0.000309
    44  H    0.000000   0.569756  -0.007630  -0.000307   0.000064   0.000000
    45  H    0.000000  -0.007630   0.572166  -0.007477  -0.000322   0.000000
    46  H    0.000000  -0.000307  -0.007477   0.571934  -0.007787  -0.000000
    47  H    0.000000   0.000064  -0.000322  -0.007787   0.566145   0.000000
    48  H   -0.000309   0.000000   0.000000  -0.000000   0.000000   0.571722
 Mulliken charges:
               1
     1  S    0.282132
     2  S    0.287971
     3  C   -0.069726
     4  C   -0.082905
     5  C   -0.106598
     6  C   -0.043610
     7  C   -0.045514
     8  C   -0.107512
     9  C   -0.082810
    10  C   -0.068692
    11  C   -0.202873
    12  C    0.012306
    13  C   -0.180093
    14  C   -0.179802
    15  C    0.013278
    16  C   -0.203389
    17  H    0.096808
    18  H    0.097527
    19  H    0.097047
    20  H    0.095227
    21  H    0.096946
    22  H    0.098242
    23  H    0.097917
    24  H    0.098123
    25  S    0.287973
    26  S    0.282131
    27  C   -0.068692
    28  C   -0.082810
    29  C   -0.107512
    30  C   -0.045514
    31  C   -0.043610
    32  C   -0.106598
    33  C   -0.082905
    34  C   -0.069726
    35  C   -0.203388
    36  C    0.013277
    37  C   -0.179802
    38  C   -0.180094
    39  C    0.012307
    40  C   -0.202874
    41  H    0.097917
    42  H    0.096946
[...]
 Alpha  occ. eigenvalues --   -0.88212  -0.84135  -0.82097  -0.77756  -0.77358
 Alpha  occ. eigenvalues --   -0.73954  -0.72123  -0.70016  -0.64604  -0.61534
 Alpha  occ. eigenvalues --   -0.59365  -0.58463  -0.56987  -0.51417  -0.50220
 Alpha  occ. eigenvalues --   -0.49097  -0.47492  -0.45651  -0.45496  -0.43992
 Alpha  occ. eigenvalues --   -0.43459  -0.43123  -0.40830  -0.40503  -0.39185
 Alpha  occ. eigenvalues --   -0.37284  -0.36629  -0.36204  -0.34755  -0.34568
 Alpha  occ. eigenvalues --   -0.34541  -0.32716  -0.28877  -0.28202  -0.24977
 Alpha  occ. eigenvalues --   -0.22873  -0.21142
 Alpha virt. eigenvalues --   -0.05634  -0.02355  -0.01598  -0.00538   0.00529
 Alpha virt. eigenvalues --    0.01814   0.04007   0.04132   0.04932   0.06274
 Alpha virt. eigenvalues --    0.07391   0.07898   0.08378   0.11281   0.12155
 Alpha virt. eigenvalues --    0.12961   0.13135   0.13213   0.14000   0.15844
 Alpha virt. eigenvalues --    0.16154   0.17706   0.19342   0.20644   0.23011
 Alpha virt. eigenvalues --    0.23156   0.24325   0.26898   0.27563   0.27686
 Alpha virt. eigenvalues --    0.28436   0.28987   0.29457   0.32879   0.34470
 Alpha virt. eigenvalues --    0.35828   0.37143   0.37441   0.38214   0.38784
 Alpha virt. eigenvalues --    0.38883   0.39778   0.40122   0.40604   0.41645
 Alpha virt. eigenvalues --    0.42095   0.42530   0.42664   0.44115   0.44468
 Alpha virt. eigenvalues --    0.44601   0.45384   0.45598   0.45806   0.45854
 Alpha virt. eigenvalues --    0.48376   0.49289   0.49469   0.50768   0.51611
 Alpha virt. eigenvalues --    0.53255   0.54814   0.56289   0.57147   0.58053
 Alpha virt. eigenvalues --    0.58699   0.59093   0.59418   0.59907   0.60359
 Alpha virt. eigenvalues --    0.60411   0.61634   0.62056   0.63624   0.63701
 Alpha virt. eigenvalues --    0.64647   0.66103   0.69589   0.70213   0.71869
 Alpha virt. eigenvalues --    0.72254   0.72781   0.73141   0.73662   0.74647
 Alpha virt. eigenvalues --    0.75797   0.76581   0.77499   0.78874   0.80150
 Alpha virt. eigenvalues --    0.80162   0.81842   0.83225   0.84213   0.84656
 Alpha virt. eigenvalues --    0.85760   0.85988   0.88325   0.88907   0.90285
 Alpha virt. eigenvalues --    0.90749   0.92271   0.93486   0.95972   0.96735
 Alpha virt. eigenvalues --    0.96752   0.98696   0.99409   1.00269   1.01682
 Alpha virt. eigenvalues --    1.02841   1.06057   1.06378   1.07541   1.08927
 Alpha virt. eigenvalues --    1.08966   1.09370   1.10726   1.11288   1.15743
 Alpha virt. eigenvalues --    1.18261   1.20259   1.21823   1.22319   1.24553
 Alpha virt. eigenvalues --    1.27961   1.28574   1.28963   1.34786   1.38700
 Alpha virt. eigenvalues --    1.40575   1.41488   1.42794   1.44201   1.44815
 Alpha virt. eigenvalues --    1.47146   1.47767   1.48942   1.52381   1.53863
 Alpha virt. eigenvalues --    1.53968   1.55929   1.56261   1.57906   1.58887
 Alpha virt. eigenvalues --    1.59642   1.60508   1.61021   1.61377   1.62167
 Alpha virt. eigenvalues --    1.63004   1.67111   1.69298   1.70368   1.71950
 Alpha virt. eigenvalues --    1.72872   1.73402   1.74565   1.75625   1.80208
 Alpha virt. eigenvalues --    1.80449   1.81565   1.82362   1.83269   1.83805
 Alpha virt. eigenvalues --    1.84229   1.86699   1.88786   1.89364   1.89440
 Alpha virt. eigenvalues --    1.89832   1.90823   1.90933   1.93661   1.93790
 Alpha virt. eigenvalues --    1.93885   1.96146   1.96192   1.98879   1.99490
 Alpha virt. eigenvalues --    2.00049   2.01111   2.02442   2.03435   2.06509
 Alpha virt. eigenvalues --    2.08045   2.10951   2.12006   2.14109   2.22431
 Alpha virt. eigenvalues --    2.25160   2.26306   2.26613   2.27653   2.32650
 Alpha virt. eigenvalues --    2.32800   2.32874   2.33279   2.34000   2.35759
 Alpha virt. eigenvalues --    2.37461   2.40468   2.47840   2.51992   2.53565
 Alpha virt. eigenvalues --    2.55488   2.56345   2.57262   2.59883   2.60227
 Alpha virt. eigenvalues --    2.61400   2.61610   2.62145   2.63709   2.64452
 Alpha virt. eigenvalues --    2.65123   2.65896   2.68911   2.68924   2.68999
 Alpha virt. eigenvalues --    2.70410   2.71688   2.73533   2.77368   2.79988
 Alpha virt. eigenvalues --    2.81351   2.81647   2.82207   2.83175   2.83583
 Alpha virt. eigenvalues --    2.87662   2.91705   2.92379   2.97020   3.03978
 Alpha virt. eigenvalues --    3.04299   3.07287   3.10371   3.15514   3.17190
 Alpha virt. eigenvalues --    3.23369   3.24266   3.29670   3.30263   3.31901
 Alpha virt. eigenvalues --    3.34398   3.38725   3.42628   3.44598   3.45777
 Alpha virt. eigenvalues --    3.50498   3.54556   3.55826   3.62654   3.75967
 Alpha virt. eigenvalues --    3.82196   3.98588   4.00437   4.01595   4.03790
 Alpha virt. eigenvalues --    4.11484   4.11840   4.19784   4.54946   4.79699
 Alpha virt. eigenvalues --    4.79826   7.81119   7.83950  17.19636  17.21067
 Alpha virt. eigenvalues --   17.43715  17.51189  17.52287  17.53379  23.35373
 Alpha virt. eigenvalues --   23.53812  23.68918  23.85655  23.85823  23.90157
 Alpha virt. eigenvalues --   23.92087  23.98132  24.01115  24.03741  24.07284
 Alpha virt. eigenvalues --   24.07407  24.14660  24.14770 188.92517 188.95387
          Condensed to atoms (all electrons):
              25         26         27         28         29         30
    25  S   15.370521   0.009509  -0.061459   0.005886  -0.000104   0.009383
    26  S    0.009509  15.370523  -0.000169  -0.000038   0.000327   0.002372
    27  C   -0.061459  -0.000169   4.861973   0.512595  -0.040618  -0.053511
    28  C    0.005886  -0.000038   0.512595   4.879645   0.492494  -0.051841
    29  C   -0.000104   0.000327  -0.040618   0.492494   4.878939   0.511515
    30  C    0.009383   0.002372  -0.053511  -0.051841   0.511515   4.875463
    31  C    0.002372   0.009384  -0.000001   0.000000  -0.000000  -0.000001
    32  C    0.000327  -0.000104   0.000000  -0.000000   0.000000  -0.000000
    33  C   -0.000038   0.005886  -0.000000   0.000000  -0.000000   0.000000
    34  C   -0.000169  -0.061459   0.000000  -0.000000   0.000000  -0.000001
    35  C    0.008663   0.306204   0.000033  -0.000002   0.000002  -0.000301
    36  C   -0.070641  -0.088260  -0.000510   0.000027  -0.000018   0.000095
    37  C    0.316757  -0.092103  -0.000488  -0.000022  -0.000613   0.011534
    38  C   -0.092103   0.316757   0.017255  -0.001042   0.013325  -0.089217
    39  C   -0.088260  -0.070641   0.006577  -0.049987  -0.029891   0.486116
    40  C    0.306204   0.008663   0.443291  -0.047947  -0.054765  -0.045309
    41  H   -0.003185   0.000023   0.419541  -0.037063   0.007347  -0.000568
    42  H    0.000110  -0.000002   0.007001  -0.041819   0.411184  -0.038061
    43  H   -0.000642   0.003289  -0.000908   0.007554  -0.039506   0.419764
    44  H    0.003289  -0.000642  -0.000003   0.000000  -0.000000   0.000000
    45  H   -0.000002   0.000110   0.000000  -0.000000  -0.000000   0.000000
    46  H   -0.000003  -0.000371  -0.000000   0.000000   0.000000   0.000000
    47  H    0.000023  -0.003185   0.000000  -0.000000   0.000000  -0.000000
    48  H   -0.000371  -0.000003  -0.041208   0.413909  -0.042677   0.007628
              31         32         33         34         35         36
    25  S    0.002372   0.000327  -0.000038  -0.000169   0.008663  -0.070641
    26  S    0.009384  -0.000104   0.005886  -0.061459   0.306204  -0.088260
    27  C   -0.000001   0.000000  -0.000000   0.000000   0.000033  -0.000510
    28  C    0.000000  -0.000000   0.000000  -0.000000  -0.000002   0.000027
    29  C   -0.000000   0.000000  -0.000000   0.000000   0.000002  -0.000018
    30  C   -0.000001  -0.000000   0.000000  -0.000001  -0.000301   0.000095
    31  C    4.875464   0.511515  -0.051841  -0.053511  -0.045308   0.486115
    32  C    0.511515   4.878940   0.492493  -0.040618  -0.054765  -0.029890
    33  C   -0.051841   0.492493   4.879646   0.512593  -0.047947  -0.049987
    34  C   -0.053511  -0.040618   0.512593   4.861974   0.443290   0.006578
    35  C   -0.045308  -0.054765  -0.047947   0.443290   5.390459   0.412309
    36  C    0.486115  -0.029890  -0.049987   0.006578   0.412309   4.949755
    37  C   -0.089217   0.013325  -0.001043   0.017255  -0.096660   0.392923
    38  C    0.011534  -0.000613  -0.000022  -0.000488  -0.086686  -0.014510
    39  C    0.000095  -0.000018   0.000027  -0.000510   0.003451   0.021082
    40  C   -0.000301   0.000002  -0.000002   0.000033  -0.000008   0.003451
    41  H   -0.000000   0.000000  -0.000000   0.000000   0.000001  -0.000009
    42  H    0.000000  -0.000000  -0.000000   0.000000  -0.000000  -0.000000
    43  H    0.000000  -0.000000   0.000000  -0.000003  -0.000107   0.000013
    44  H    0.419764  -0.039506   0.007554  -0.000908   0.008942  -0.045793
    45  H   -0.038061   0.411184  -0.041819   0.007001   0.000281   0.007544
    46  H    0.007628  -0.042677   0.413909  -0.041208   0.008882  -0.000338
    47  H   -0.000568   0.007347  -0.037063   0.419542  -0.047521   0.007228
    48  H    0.000000   0.000000   0.000000  -0.000000  -0.000000  -0.000000
              37         38         39         40         41         42
    25  S    0.316757  -0.092103  -0.088260   0.306204  -0.003185   0.000110
    26  S   -0.092103   0.316757  -0.070641   0.008663   0.000023  -0.000002
    27  C   -0.000488   0.017255   0.006577   0.443291   0.419541   0.007001
    28  C   -0.000022  -0.001042  -0.049987  -0.047947  -0.037063  -0.041819
    29  C   -0.000613   0.013325  -0.029891  -0.054765   0.007347   0.411184
    30  C    0.011534  -0.089217   0.486116  -0.045309  -0.000568  -0.038061
    31  C   -0.089217   0.011534   0.000095  -0.000301  -0.000000   0.000000
    32  C    0.013325  -0.000613  -0.000018   0.000002   0.000000  -0.000000
    33  C   -0.001043  -0.000022   0.000027  -0.000002  -0.000000  -0.000000
    34  C    0.017255  -0.000488  -0.000510   0.000033   0.000000   0.000000
    35  C   -0.096660  -0.086686   0.003451  -0.000008   0.000001  -0.000000
    36  C    0.392923  -0.014510   0.021082   0.003451  -0.000009  -0.000000
    37  C    5.458987   0.363451  -0.014510  -0.086686  -0.000118   0.000016
    38  C    0.363451   5.458985   0.392924  -0.096660  -0.000333  -0.000469
    39  C   -0.014510   0.392924   4.949754   0.412309   0.007227   0.007544
    40  C   -0.086686  -0.096660   0.412309   5.390459  -0.047521   0.000281
    41  H   -0.000118  -0.000333   0.007227  -0.047521   0.565102  -0.000321
    42  H    0.000016  -0.000469   0.007544   0.000281  -0.000321   0.571823
    43  H    0.000092  -0.012023  -0.045793   0.008942   0.000064  -0.007644
    44  H   -0.012023   0.000092   0.000013  -0.000107   0.000000   0.000000
    45  H   -0.000469   0.000016  -0.000000  -0.000000  -0.000000   0.000000
    46  H   -0.000002   0.000010  -0.000000  -0.000000   0.000000   0.000000
    47  H   -0.000333  -0.000118  -0.000009   0.000001   0.000000  -0.000000
    48  H    0.000010  -0.000002  -0.000338   0.008882  -0.007754  -0.007454
              43         44         45         46         47         48
    25  S   -0.000642   0.003289  -0.000002  -0.000003   0.000023  -0.000371
    26  S    0.003289  -0.000642   0.000110  -0.000371  -0.003185  -0.000003
    27  C   -0.000908  -0.000003   0.000000  -0.000000   0.000000  -0.041208
    28  C    0.007554   0.000000  -0.000000   0.000000  -0.000000   0.413909
    29  C   -0.039506  -0.000000  -0.000000   0.000000   0.000000  -0.042677
    30  C    0.419764   0.000000   0.000000   0.000000  -0.000000   0.007628
    31  C    0.000000   0.419764  -0.038061   0.007628  -0.000568   0.000000
    32  C   -0.000000  -0.039506   0.411184  -0.042677   0.007347   0.000000
    33  C    0.000000   0.007554  -0.041819   0.413909  -0.037063   0.000000
    34  C   -0.000003  -0.000908   0.007001  -0.041208   0.419542  -0.000000
    35  C   -0.000107   0.008942   0.000281   0.008882  -0.047521  -0.000000
    36  C    0.000013  -0.045793   0.007544  -0.000338   0.007228  -0.000000
    37  C    0.000092  -0.012023  -0.000469  -0.000002  -0.000333   0.000010
    38  C   -0.012023   0.000092   0.000016   0.000010  -0.000118  -0.000002
    39  C   -0.045793   0.000013  -0.000000  -0.000000  -0.000009  -0.000338
    40  C    0.008942  -0.000107  -0.000000  -0.000000   0.000001   0.008882
    41  H    0.000064   0.000000  -0.000000   0.000000   0.000000  -0.007754
    42  H   -0.007644   0.000000   0.000000   0.000000  -0.000000  -0.007454
    43  H    0.571389   0.000000   0.000000   0.000000   0.000000  -0.000308
    44  H    0.000000   0.571389  -0.007644  -0.000308   0.000064   0.000000
    45  H    0.000000  -0.007644   0.571823  -0.007454  -0.000321   0.000000
    46  H    0.000000  -0.000308  -0.007454   0.570652  -0.007754  -0.000000
    47  H    0.000000   0.000064  -0.000321  -0.007754   0.565101   0.000000
    48  H   -0.000308   0.000000   0.000000  -0.000000   0.000000   0.570652
 Mulliken charges:
               1
     1  S    0.000000
     2  S    0.000000
     3  C    0.000000
     4  C    0.000000
     5  C    0.000000
     6  C    0.000000
     7  C    0.000000
     8  C    0.000000
     9  C    0.000000
    10  C    0.000000
    11  C    0.000000
    12  C    0.000000
    13  C    0.000000
    14  C    0.000000
    15  C    0.000000
    16  C    0.000000
    17  H    0.000000
    18  H    0.000000
    19  H    0.000000
    20  H    0.000000
    21  H    0.000000
    22  H    0.000000
    23  H    0.000000
    24  H    0.000000
    25  S    0.283934
    26  S    0.283932
    27  C   -0.069392
    28  C   -0.082346
    29  C   -0.106942
    30  C   -0.045061
    31  C   -0.045061
    32  C   -0.106942
    33  C   -0.082346
    34  C   -0.069391
    35  C   -0.203209
    36  C    0.012839
    37  C   -0.180062
    38  C   -0.180063
    39  C    0.012839
    40  C   -0.203210
    41  H    0.097566
    42  H    0.097812
    43  H    0.095826
    44  H    0.095826
    45  H    0.097812
    46  H    0.099035
    47  H    0.097566
    48  H    0.099035
 Sum of Mulliken charges =  -0.00000
 Mulliken charges with hydrogens summed into heavy atoms:
               1
     1  S    0.000000
     2  S    0.000000
     3  C    0.000000
     4  C    0.000000
     5  C    0.000000
     6  C    0.000000
     7  C    0.000000
     8  C    0.000000
     9  C    0.000000
    10  C    0.000000
    11  C    0.000000
    12  C    0.000000
    13  C    0.000000
    14  C    0.000000
    15  C    0.000000
    16  C    0.000000
    25  S    0.283934
    26  S    0.283932
    27  C    0.028175
    28  C    0.016688
    29  C   -0.009129
    30  C    0.050766
    31  C    0.050766
    32  C   -0.009129
    33  C    0.016688
    34  C    0.028175
    35  C   -0.203209
    36  C    0.012839
    37  C   -0.180062
    38  C   -0.180063
    39  C    0.012839
    40  C   -0.203210
         Mulliken charges condensed to fragments:
      1      0.000000
      2     -0.000000
 Electronic spatial extent (au):  <R**2>=          11496.2954
 Charge=             -0.0000 electrons
 Dipole moment (field-independent basis, Debye):
    X=             -0.0000    Y=              0.0000    Z=             -0.0000  Tot=              0.0000
 Quadrupole moment (field-independent basis, Debye-Ang):
   XX=           -108.9258   YY=            -88.7611   ZZ=           -102.5893
   XY=             -1.5792   XZ=              7.0716   YZ=              0.3947
 Traceless Quadrupole moment (field-independent basis, Debye-Ang):
   XX=             -8.8337   YY=             11.3310   ZZ=             -2.4972
   XY=             -1.5792   XZ=              7.0716   YZ=              0.3947
 Octapole moment (field-independent basis, Debye-Ang**2):
  XXX=          -1306.2049  YYY=            -34.5899  ZZZ=             65.4971  XYY=           -355.2090
  XXY=            -26.7740  XXZ=             79.7145  XZZ=           -413.0831  YZZ=            -13.4944
  YYZ=             18.9921  XYZ=              2.8324
 Hexadecapole moment (field-independent basis, Debye-Ang**3):
 XXXX=         -10951.4419 YYYY=          -4244.8748 ZZZZ=           -947.1366 XXXY=            -73.7187
 XXXZ=            362.3377 YYYX=            -17.5354 YYYZ=             34.9258 ZZZX=             38.8056
 ZZZY=              1.4656 XXYY=          -2332.4187 XXZZ=          -1885.8460 YYZZ=           -903.7701
 XXYZ=              1.9290 YYXZ=             84.8577 ZZXY=             -9.4315
 N-N= 1.192162449365D+03 E-N=-5.527361780074D+03  KE= 1.331399870420D+03
 CPIOFr:  IOpCl= 0 IRwI=-1 IRwCP=  731 ICalc=  4 LCPTot=      762852 Len1MO=     1998050 IndFrg=    10753102
 CPIOFr:  IOpCl= 0 IRwI=-2 IRwCP=  731 ICalc=  0 LCPTot=      762852 Len1MO=     1998050 IndFrg=     2760902
 Counterpoise corrected energy =   -2669.795220524769
                   BSSE energy =       0.000003745462
              sum of fragments =   -2669.794630473756
           complexation energy =      -0.37 kcal/mole (raw)
           complexation energy =      -0.37 kcal/mole (corrected)
 1\1\GINC-CMDELL86\SP\RB3LYP\6-311G(d,p)\C28H16S4\OHNO\14-Jul-2021\0\\#
 b3lyp/6-311G** EmpiricalDispersion=GD3 counterpoise=2\\BTBT dimer b3ly
 p/6-311G**\\0,1\S,0,1.6203193263,0.9333401805,-0.9655543418\S,0,-1.620
 3215046,-0.9333388826,0.9655526073\C,0,0.7607010875,0.432046614,-3.596
 4890673\C,0,-0.1990145233,-0.0970811798,-4.456605144\C,0,-1.3358730484
 ,-0.7617409166,-3.9518894629\C,0,-1.5484008838,-0.8661903564,-2.581713
 2069\C,0,1.5483981093,0.866196593,2.581713372\C,0,1.3358706776,0.76174
 32744,3.9518892671\C,0,0.19901583,0.0970776341,4.4566055645\C,0,-0.760
 6973501,-0.4320550248,3.5964887592\C,0,-0.5418750743,-0.3467155574,2.2
 136722139\C,0,0.5874862401,0.3462927079,1.6917199634\C,0,0.5677107081,
 0.3035896045,0.2629304608\C,0,-0.5677107915,-0.3035871419,-0.262930279
 8\C,0,-0.5874867399,-0.3462921765,-1.6917195198\C,0,0.5418798052,0.346
 711325,-2.2136710574\H,0,1.6351619757,0.9441051055,-3.9892419249\H,0,-
 2.069015815,-1.1685664408,-4.6425298944\H,0,-2.4232632237,-1.382224776
 ,-2.1937042881\H,0,2.4232592385,1.3822352091,2.193705084\H,0,2.0690081
 682,1.1685767873,4.6425301772\H,0,0.0489377359,0.0282464127,5.53031334
 02\H,0,-1.6351576368,-0.9441151195,3.9892396112\H,0,-0.0489323111,-0.0
 282538749,-5.5303122329\S,0,1.6203193263,-7.0766598195,-0.9655543418\S
 ,0,-1.6203215046,-8.9433388826,0.9655526073\C,0,0.7607010875,-7.577953
 386,-3.5964890673\C,0,-0.1990145233,-8.1070811798,-4.456605144\C,0,-1.
 3358730484,-8.7717409166,-3.9518894629\C,0,-1.5484008838,-8.8761903564
 ,-2.5817132069\C,0,1.5483981093,-7.143803407,2.581713372\C,0,1.3358706
 776,-7.2482567256,3.9518892671\C,0,0.19901583,-7.9129223659,4.45660556
 45\C,0,-0.7606973501,-8.4420550248,3.5964887592\C,0,-0.5418750743,-8.3
 567155574,2.2136722139\C,0,0.5874862401,-7.6637072921,1.6917199634\C,0
 ,0.5677107081,-7.7064103955,0.2629304608\C,0,-0.5677107915,-8.31358714
 19,-0.2629302798\C,0,-0.5874867399,-8.3562921765,-1.6917195198\C,0,0.5
 418798052,-7.663288675,-2.2136710574\H,0,1.6351619757,-7.0658948945,-3
 .9892419249\H,0,-2.069015815,-9.1785664408,-4.6425298944\H,0,-2.423263
 2237,-9.392224776,-2.1937042881\H,0,2.4232592385,-6.6277647909,2.19370
 5084\H,0,2.0690081682,-6.8414232127,4.6425301772\H,0,0.0489377359,-7.9
 817535873,5.5303133402\H,0,-1.6351576368,-8.9541151195,3.9892396112\H,
 0,-0.0489323111,-8.0382538749,-5.5303122329\\Version=ES64L-G16RevA.03\
 State=1-A\HF=-1334.8973152\RMSD=8.831e-09\Dipole=0.0000025,0.0000074,0
 .0000047\Quadrupole=-2.0484578,-14.7676352,16.816093,9.5705317,1.16311
 52,0.6080539\PG=C01 [X(C28H16S4)]\\@


 WORK FAITHFULLY FOR EIGHT HOURS A DAY AND DON'T WORRY.
 IN TIME YOU MAY BECOME BOSS AND WORK TWELVE HOURS A DAY
 AND HAVE ALL THE WORRY.
 Job cpu time:       0 days  1 hours 52 minutes 26.1 seconds.
 Elapsed time:       0 days  0 hours  2 minutes 51.4 seconds.
 File lengths (MBytes):  RWF=    395 Int=      0 D2E=      0 Chk=    113 Scr=      2
 Normal termination of Gaussian 16 at Wed Jul 14 11:07:21 2021.
