 Entering Gaussian System, Link 0=g16
 Initial command:
 /home/g03/g16/l1.exe "/home/scr/21098/Gau-178007.inp" -scrdir="/home/scr/21098/"
 Entering Link 1 = /home/g03/g16/l1.exe PID=    178008.
  
 Copyright (c) 1988,1990,1992,1993,1995,1998,2003,2009,2016,
            Gaussian, Inc.  All Rights Reserved.
  
 This is part of the Gaussian(R) 16 program.  It is based on
 the Gaussian(R) 09 system (copyright 2009, Gaussian, Inc.),
 the Gaussian(R) 03 system (copyright 2003, Gaussian, Inc.),
 the Gaussian(R) 98 system (copyright 1998, Gaussian, Inc.),
 the Gaussian(R) 94 system (copyright 1995, Gaussian, Inc.),
 the Gaussian 92(TM) system (copyright 1992, Gaussian, Inc.),
 the Gaussian 90(TM) system (copyright 1990, Gaussian, Inc.),
 the Gaussian 88(TM) system (copyright 1988, Gaussian, Inc.),
 the Gaussian 86(TM) system (copyright 1986, Carnegie Mellon
 University), and the Gaussian 82(TM) system (copyright 1983,
 Carnegie Mellon University). Gaussian is a federally registered
 trademark of Gaussian, Inc.
  
 This software contains proprietary and confidential information,
 including trade secrets, belonging to Gaussian, Inc.
  
 This software is provided under written license and may be
 used, copied, transmitted, or stored only in accord with that
 written license.
  
 The following legend is applicable only to US Government
 contracts under FAR:
  
                    RESTRICTED RIGHTS LEGEND
  
 Use, reproduction and disclosure by the US Government is
 subject to restrictions as set forth in subparagraphs (a)
 and (c) of the Commercial Computer Software - Restricted
 Rights clause in FAR 52.227-19.
  
 Gaussian, Inc.
 340 Quinnipiac St., Bldg. 40, Wallingford CT 06492
  
  
 ---------------------------------------------------------------
 Warning -- This program may not be used in any manner that
 competes with the business of Gaussian, Inc. or will provide
 assistance to any competitor of Gaussian, Inc.  The licensee
 of this program is prohibited from giving any competitor of
 Gaussian, Inc. access to this program.  By using this program,
 the user acknowledges that Gaussian, Inc. is engaged in the
 business of creating and licensing software in the field of
 computational chemistry and represents and warrants to the
 licensee that it is not a competitor of Gaussian, Inc. and that
 it will not use this program in any manner prohibited above.
 ---------------------------------------------------------------
  

 Cite this work as:
 Gaussian 16, Revision A.03,
 M. J. Frisch, G. W. Trucks, H. B. Schlegel, G. E. Scuseria, 
 M. A. Robb, J. R. Cheeseman, G. Scalmani, V. Barone, 
 G. A. Petersson, H. Nakatsuji, X. Li, M. Caricato, A. V. Marenich, 
 J. Bloino, B. G. Janesko, R. Gomperts, B. Mennucci, H. P. Hratchian, 
 J. V. Ortiz, A. F. Izmaylov, J. L. Sonnenberg, D. Williams-Young, 
 F. Ding, F. Lipparini, F. Egidi, J. Goings, B. Peng, A. Petrone, 
 T. Henderson, D. Ranasinghe, V. G. Zakrzewski, J. Gao, N. Rega, 
 G. Zheng, W. Liang, M. Hada, M. Ehara, K. Toyota, R. Fukuda, 
 J. Hasegawa, M. Ishida, T. Nakajima, Y. Honda, O. Kitao, H. Nakai, 
 T. Vreven, K. Throssell, J. A. Montgomery, Jr., J. E. Peralta, 
 F. Ogliaro, M. J. Bearpark, J. J. Heyd, E. N. Brothers, K. N. Kudin, 
 V. N. Staroverov, T. A. Keith, R. Kobayashi, J. Normand, 
 K. Raghavachari, A. P. Rendell, J. C. Burant, S. S. Iyengar, 
 J. Tomasi, M. Cossi, J. M. Millam, M. Klene, C. Adamo, R. Cammi, 
 J. W. Ochterski, R. L. Martin, K. Morokuma, O. Farkas, 
 J. B. Foresman, and D. J. Fox, Gaussian, Inc., Wallingford CT, 2016.
 
 ******************************************
 Gaussian 16:  ES64L-G16RevA.03 25-Dec-2016
                14-Jul-2021 
 ******************************************
 %NProcShared=40
 Will use up to   40 processors via shared memory.
 %Mem=15GB
 ------------------------------------------------------
 #b3lyp/6-311G** EmpiricalDispersion=GD3 counterpoise=2
 ------------------------------------------------------
 1/38=1,62=2,172=1/1;
 2/12=2,17=6,18=5,40=1/2;
 1/38=1,53=2,62=2,63=1/22;
 3/5=4,6=6,7=101,11=2,25=1,30=1,74=-5,124=31/1,2,3;
 4//1;
 5/5=2,38=5/2;
 6/7=2,8=2,9=2,10=2,28=1/1;
 1/53=2,62=2,63=1/22;
 3/5=7,6=11,7=101,11=2,25=1,30=1,74=-5,82=7,124=31/1,2,3;
 4//1;
 5/5=2,38=5/2;
 6/7=2,8=2,9=2,10=2,28=1/1;
 1/53=2,62=2,63=1/22(-4);
 99/5=1,9=1/99;
 -------------------------
 BTBT dimer b3lyp/6-311G**
 -------------------------
 Symbolic Z-matrix:
 Charge =  0 Multiplicity = 1 in supermolecule
 Charge =  0 Multiplicity = 1 in fragment      1.
 Charge =  0 Multiplicity = 1 in fragment      2.
 S                     1.62032   0.93334  -0.96555    
 S                    -1.62032  -0.93334   0.96555    
 C                     0.7607    0.43205  -3.59649    
 C                    -0.19901  -0.09708  -4.45661    
 C                    -1.33587  -0.76174  -3.95189    
 C                    -1.5484   -0.86619  -2.58171    
 C                     1.5484    0.8662    2.58171    
 C                     1.33587   0.76174   3.95189    
 C                     0.19902   0.09708   4.45661    
 C                    -0.7607   -0.43206   3.59649    
 C                    -0.54188  -0.34672   2.21367    
 C                     0.58749   0.34629   1.69172    
 C                     0.56771   0.30359   0.26293    
 C                    -0.56771  -0.30359  -0.26293    
 C                    -0.58749  -0.34629  -1.69172    
 C                     0.54188   0.34671  -2.21367    
 H                     1.63516   0.94411  -3.98924    
 H                    -2.06902  -1.16857  -4.64253    
 H                    -2.42326  -1.38222  -2.1937     
 H                     2.42326   1.38224   2.19371    
 H                     2.06901   1.16858   4.64253    
 H                     0.04894   0.02825   5.53031    
 H                    -1.63516  -0.94412   3.98924    
 H                    -0.04893  -0.02825  -5.53031    
 S                     1.62032   8.98334  -0.96555    
 S                    -1.62032   7.11666   0.96555    
 C                     0.7607    8.48205  -3.59649    
 C                    -0.19901   7.95292  -4.45661    
 C                    -1.33587   7.28826  -3.95189    
 C                    -1.5484    7.18381  -2.58171    
 C                     1.5484    8.9162    2.58171    
 C                     1.33587   8.81174   3.95189    
 C                     0.19902   8.14708   4.45661    
 C                    -0.7607    7.61794   3.59649    
 C                    -0.54188   7.70328   2.21367    
 C                     0.58749   8.39629   1.69172    
 C                     0.56771   8.35359   0.26293    
 C                    -0.56771   7.74641  -0.26293    
 C                    -0.58749   7.70371  -1.69172    
 C                     0.54188   8.39671  -2.21367    
 H                     1.63516   8.99411  -3.98924    
 H                    -2.06902   6.88143  -4.64253    
 H                    -2.42326   6.66778  -2.1937     
 H                     2.42326   9.43224   2.19371    
 H                     2.06901   9.21858   4.64253    
 H                     0.04894   8.07825   5.53031    
 H                    -1.63516   7.10588   3.98924    
 H                    -0.04893   8.02175  -5.53031    
 
                          Input orientation:                          
 ---------------------------------------------------------------------
 Center     Atomic      Atomic             Coordinates (Angstroms)
 Number     Number       Type             X           Y           Z
 ---------------------------------------------------------------------
      1         16           0        1.620319    0.933340   -0.965554
      2         16           0       -1.620322   -0.933339    0.965553
      3          6           0        0.760701    0.432047   -3.596489
      4          6           0       -0.199015   -0.097081   -4.456605
      5          6           0       -1.335873   -0.761741   -3.951889
      6          6           0       -1.548401   -0.866190   -2.581713
      7          6           0        1.548398    0.866197    2.581713
      8          6           0        1.335871    0.761743    3.951889
      9          6           0        0.199016    0.097078    4.456606
     10          6           0       -0.760697   -0.432055    3.596489
     11          6           0       -0.541875   -0.346716    2.213672
     12          6           0        0.587486    0.346293    1.691720
     13          6           0        0.567711    0.303590    0.262930
     14          6           0       -0.567711   -0.303587   -0.262930
     15          6           0       -0.587487   -0.346292   -1.691720
     16          6           0        0.541880    0.346711   -2.213671
     17          1           0        1.635162    0.944105   -3.989242
     18          1           0       -2.069016   -1.168566   -4.642530
     19          1           0       -2.423263   -1.382225   -2.193704
     20          1           0        2.423259    1.382235    2.193705
     21          1           0        2.069008    1.168577    4.642530
     22          1           0        0.048938    0.028246    5.530313
     23          1           0       -1.635158   -0.944115    3.989240
     24          1           0       -0.048932   -0.028254   -5.530312
     25         16           0        1.620319    8.983340   -0.965554
     26         16           0       -1.620322    7.116661    0.965553
     27          6           0        0.760701    8.482047   -3.596489
     28          6           0       -0.199015    7.952919   -4.456605
     29          6           0       -1.335873    7.288259   -3.951889
     30          6           0       -1.548401    7.183810   -2.581713
     31          6           0        1.548398    8.916197    2.581713
     32          6           0        1.335871    8.811743    3.951889
     33          6           0        0.199016    8.147078    4.456606
     34          6           0       -0.760697    7.617945    3.596489
     35          6           0       -0.541875    7.703284    2.213672
     36          6           0        0.587486    8.396293    1.691720
     37          6           0        0.567711    8.353590    0.262930
     38          6           0       -0.567711    7.746413   -0.262930
     39          6           0       -0.587487    7.703708   -1.691720
     40          6           0        0.541880    8.396711   -2.213671
     41          1           0        1.635162    8.994105   -3.989242
     42          1           0       -2.069016    6.881434   -4.642530
     43          1           0       -2.423263    6.667775   -2.193704
     44          1           0        2.423259    9.432235    2.193705
     45          1           0        2.069008    9.218577    4.642530
     46          1           0        0.048938    8.078246    5.530313
     47          1           0       -1.635158    7.105885    3.989240
     48          1           0       -0.048932    8.021746   -5.530312
 ---------------------------------------------------------------------
                    Distance matrix (angstroms):
                    1          2          3          4          5
     1  S    0.000000
     2  S    4.208969   0.000000
     3  C    2.812838   5.324075   0.000000
     4  C    4.069297   5.667383   1.393137   0.000000
     5  C    4.531067   4.928650   2.438660   1.410304   0.000000
     6  C    3.986360   3.548630   2.836748   2.434665   1.390489
     7  C    3.548632   3.986363   6.243327   7.315687   7.325105
     8  C    4.928652   4.531069   7.577436   8.590473   8.481093
     9  C    5.667385   4.069299   8.079606   8.924206   8.590474
    10  C    5.324076   2.812839   7.402719   8.079605   7.577436
    11  C    4.052297   1.750707   6.005094   6.683747   6.230315
    12  C    2.910752   2.653147   5.291740   6.214263   6.064435
    13  C    1.736014   2.609819   3.866376   4.798169   4.745868
    14  C    2.609817   1.736015   3.663120   4.214913   3.795840
    15  C    2.653146   2.910750   2.459994   2.803143   2.416826
    16  C    1.750703   4.052296   1.402623   2.403462   2.788553
    17  H    3.023743   6.218759   1.086803   2.160255   3.426128
    18  H    5.616881   5.630919   3.415181   2.163228   1.086273
    19  H    4.818792   3.290459   3.923903   3.423390   2.158387
    20  H    3.290462   4.818795   6.098632   7.300091   7.516385
    21  H    5.630921   5.616882   8.374699   9.462562   9.443696
    22  H    6.744237   4.954605   9.163416   9.990782   9.615298
    23  H    6.218758   3.023743   8.073242   8.608848   7.948859
    24  H    4.954602   6.744235   2.146405   1.086328   2.164633
    25  S    8.050000  10.609969   8.988069   9.897043  10.612440
    26  S    7.243230   8.050000   8.435968   9.135534   9.291467
    27  C    8.040132  10.729910   8.050000   8.675384   9.485227
    28  C    8.048099  10.506450   7.630490   8.050000   8.802981
    29  C    7.618547   9.584196   7.178411   7.489355   8.050000
    30  C    7.191740   8.858689   7.207498   7.638549   8.065626
    31  C    8.735804  10.472159  10.524802  11.568516  12.027862
    32  C    9.291469  10.612441  11.292836  12.346085  12.698800
    33  C    9.135531   9.897040  11.166446  12.147836  12.346081
    34  C    8.435960   8.988061  10.280599  11.166442  11.292829
    35  C    7.785545   8.792731   9.398169  10.269170  10.502440
    36  C    7.988962   9.614768   9.561609  10.514651  10.927910
    37  C    7.594555   9.567037   8.813808   9.709569  10.221428
    38  C    7.190210   8.829227   8.147223   8.901867   9.305223
    39  C    7.158184   9.095406   7.636937   8.285398   8.793877
    40  C    7.643477  10.091205   8.086776   8.816132   9.509185
    41  H    8.609230  11.562971   8.615555   9.286135  10.198283
    42  H    7.906400   9.629257   7.120119   7.227112   7.709254
    43  H    7.123388   8.270584   7.140710   7.472034   7.711767
    44  H    9.102574  11.193928  10.830228  11.912633  12.482650
    45  H   10.014843  11.410202  12.115949  13.218157  13.603823
    46  H    9.783416  10.238757  11.927678  12.908757  13.037456
    47  H    8.558529   8.589064  10.383811  11.192744  11.182604
    48  H    8.594703  11.174036   7.873926   8.190893   9.016500
                    6          7          8          9         10
     6  C    0.000000
     7  C    6.265166   0.000000
     8  C    7.325104   1.390489   0.000000
     9  C    7.315687   2.434666   1.410304   0.000000
    10  C    6.243327   2.836750   2.438660   1.393137   0.000000
    11  C    4.927339   2.444556   2.788550   2.403460   1.402622
    12  C    4.928931   1.409163   2.416825   2.803143   2.459994
    13  C    3.733405   2.579734   3.795839   4.214913   3.663121
    14  C    2.579734   3.733404   4.745867   4.798168   3.866376
    15  C    1.409162   4.928931   6.064435   6.214263   5.291739
    16  C    2.444557   4.927338   6.230314   6.683746   6.005093
    17  H    3.923440   6.571990   7.948861   8.608851   8.073244
    18  H    2.146960   8.331605   9.443696   9.462562   8.374698
    19  H    1.087302   6.605612   7.516383   7.300089   6.098630
    20  H    6.605613   1.087303   2.158387   3.423391   3.923905
    21  H    8.331604   2.146959   1.086273   2.163227   3.415181
    22  H    8.316038   3.412445   2.164633   1.086328   2.146407
    23  H    6.571988   3.923441   3.426129   2.160256   1.086802
    24  H    3.412445   8.316037   9.615296   9.990781   9.163414
    25  S   10.472154   8.858685   9.584196  10.506454  10.729918
    26  S    8.735799   7.191736   7.618547   8.048105   8.040143
    27  C    9.682523   9.838284  10.812582  11.639396  11.554860
    28  C    9.116619  10.139675  11.170123  11.887725  11.639398
    29  C    8.271493   9.604680  10.592608  11.170128  10.812589
    30  C    8.050000   8.727163   9.604682  10.139683   9.838295
    31  C   11.486785   8.050000   8.271497   9.116628   9.682536
    32  C   12.027859   8.065622   8.050000   8.802987   9.485237
    33  C   11.568509   7.638539   7.489349   8.050000   8.675389
    34  C   10.524790   7.207482   7.178399   7.630485   8.050000
    35  C    9.871409   7.158943   7.398130   7.964550   8.254927
    36  C   10.421988   7.643153   7.997174   8.756282   9.131564
    37  C    9.877969   7.899339   8.475531   9.267839   9.490249
    38  C    8.973040   7.739980   8.376988   9.020766   9.045424
    39  C    8.669406   8.341210   9.150983   9.812304   9.704936
    40  C    9.502951   8.984289   9.845674  10.653359  10.649027
    41  H   10.456655  10.452171  11.442155  12.351192  12.334340
    42  H    8.033908  10.072659  11.086384  11.574356  11.094153
    43  H    7.594509   8.499237   9.315612   9.709636   9.311179
    44  H   12.026482   8.619336   8.913532   9.859673  10.459905
    45  H   12.921992   8.618599   8.516602   9.313065  10.111188
    46  H   12.180288   7.934500   7.594658   8.054466   8.764726
    47  H   10.331453   7.144919   7.005465   7.259890   7.598649
    48  H    9.483568  10.934272  12.022374  12.751485  12.460813
                   11         12         13         14         15
    11  C    0.000000
    12  C    1.424132   0.000000
    13  C    2.336551   1.429564   0.000000
    14  C    2.477113   2.361669   1.390818   0.000000
    15  C    3.905658   3.647999   2.361670   1.429564   0.000000
    16  C    4.610503   3.905657   2.477112   2.336551   1.424133
    17  H    6.699392   5.807610   4.430653   4.504973   3.447304
    18  H    7.072136   7.033813   5.760478   4.709883   3.402697
    19  H    4.902741   5.210461   4.221724   2.886940   2.166846
    20  H    3.432447   2.166848   2.886941   4.221724   5.210463
    21  H    3.874555   3.402696   4.709882   5.760477   7.033812
    22  H    3.389656   3.889214   5.300025   5.835413   7.259688
    23  H    2.169053   3.447303   4.504972   4.430651   5.807607
    24  H    7.766190   7.259688   5.835412   5.300024   3.889214
    25  S   10.091209   9.095408   8.829226   9.567036   9.614768
    26  S    7.643484   7.158186   7.190209   7.594554   7.988962
    27  C   10.649024   9.704929   9.045414   9.490240   9.131556
    28  C   10.653360   9.812301   9.020761   9.267833   8.756278
    29  C    9.845680   9.150985   8.376989   8.475531   7.997176
    30  C    8.984299   8.341216   7.739984   7.899343   7.643159
    31  C    9.502959   8.669411   8.973043   9.877972  10.421993
    32  C    9.509190   8.793878   9.305222  10.221427  10.927911
    33  C    8.816132   8.285394   8.901862   9.709564  10.514648
    34  C    8.086772   7.636928   8.147213   8.813798   9.561601
    35  C    8.050000   7.461449   7.732532   8.381182   8.947058
    36  C    8.831086   8.050000   8.217887   8.991276   9.447805
    37  C    8.985092   8.133796   8.050000   8.747138   8.991278
    38  C    8.463625   7.740602   7.547273   8.050000   8.217889
    39  C    8.947820   8.182896   7.740600   8.133794   8.050000
    40  C    9.860193   8.947815   8.463619   8.985086   8.831082
    41  H   11.422196  10.399789   9.733729  10.255980   9.872274
    42  H   10.078978   9.480917   8.618811   8.547475   7.946209
    43  H    8.495156   8.007639   7.448747   7.467989   7.267682
    44  H   10.218625   9.283125   9.513313  10.476984  10.944438
    45  H   10.208373   9.466764  10.045486  11.031203  11.775670
    46  H    9.073541   8.649158   9.405304  10.207696  11.114659
    47  H    7.738809   7.477354   8.062830   8.609336   9.428990
    48  H   11.412425  10.558189   9.670153   9.865375   9.222196
                   16         17         18         19         20
    16  C    0.000000
    17  H    2.169054   0.000000
    18  H    3.874558   4.314058   0.000000
    19  H    3.432447   5.010647   2.483523   0.000000
    20  H    4.902740   6.248351   8.568619   7.097914   0.000000
    21  H    7.072134   8.645583  10.430619   8.568617   2.483523
    22  H    7.766190   9.694165  10.459676   8.231747   4.313194
    23  H    6.699390   8.827034   8.645580   6.248347   5.010648
    24  H    3.389656   2.481240   2.483789   4.313193   8.231747
    25  S    8.792735   8.589075  11.410195  11.193920   8.270576
    26  S    7.785551   8.558540  10.014835   9.102565   7.123380
    27  C    8.254923   7.598651  10.111174  10.459889   9.311164
    28  C    7.964551   7.259897   9.313054   9.859661   9.709626
    29  C    7.398138   7.005479   8.516594   8.913525   9.315607
    30  C    7.158955   7.144937   8.618596   8.619332   8.499233
    31  C    9.871417  10.331468  12.921990  12.026479   7.594505
    32  C   10.502444  11.182615  13.603818  12.482644   7.711758
    33  C   10.269170  11.192751  13.218149  11.912622   7.472019
    34  C    9.398165  10.383814  12.115936  10.830213   7.140690
    35  C    8.654193   9.428793  11.315892  10.271858   6.981983
    36  C    8.947062   9.429001  11.775664  10.944430   7.267672
    37  C    8.381189   8.609349  11.031198  10.476978   7.467981
    38  C    7.732539   8.062843  10.045480   9.513306   7.448739
    39  C    7.461454   7.477366   9.466756   9.283116   8.007630
    40  C    8.050000   7.738815  10.208363  10.218614   8.495141
    41  H    8.895242   8.050000  10.836402  11.285521   9.838216
    42  H    7.444375   7.028484   8.050000   8.626140   9.856766
    43  H    6.982000   7.242594   8.217694   8.050000   8.406847
    44  H   10.271869  10.530825  13.389983  12.636878   8.050000
    45  H   11.315901  11.965057  14.533696  13.389981   8.217694
    46  H   10.953945  12.001417  13.909566  12.460848   7.849008
    47  H    9.428787  10.598051  11.965042  10.530808   7.242573
    48  H    8.381845   7.436671   9.451494  10.256952  10.481187
                   21         22         23         24         25
    21  H    0.000000
    22  H    2.483787   0.000000
    23  H    4.314058   2.481244   0.000000
    24  H   10.459675  11.061203   9.694162   0.000000
    25  S    9.629250  11.174043  11.562979  10.238762   0.000000
    26  S    7.906391   8.594713   8.609240   9.783421   4.208969
    27  C   11.094140  12.460813  12.334340   8.764724   2.812838
    28  C   11.574346  12.751488  12.351195   8.054470   4.069297
    29  C   11.086378  12.022381  11.442163   7.594669   4.531067
    30  C   10.072654  10.934283  10.452182   7.934513   3.986360
    31  C    8.033904   9.483580  10.456668  12.180296   3.548632
    32  C    7.709246   9.016509  10.198293  13.037460   4.928652
    33  C    7.227096   8.190897   9.286141  12.908759   5.667385
    34  C    7.120097   7.873926   8.615556  11.927676   5.324076
    35  C    7.444358   8.381848   8.895247  10.953948   4.052297
    36  C    7.946198   9.222203   9.872282  11.114664   2.910752
    37  C    8.547467   9.865383  10.255990  10.207703   1.736014
    38  C    8.618803   9.670161   9.733739   9.405312   2.609817
    39  C    9.480908  10.558196  10.399796   8.649166   2.653146
    40  C   10.078965  11.412427  11.422199   9.073544   1.750703
    41  H   11.659100  13.172876  13.157484   9.306666   3.023743
    42  H   11.660717  12.447435  11.659112   7.253460   5.616881
    43  H    9.856764  10.481201   9.838231   7.849026   4.818792
    44  H    8.626140  10.256967  11.285537  12.460860   3.290462
    45  H    8.050000   9.451509  10.836417  13.909575   5.630921
    46  H    7.253439   8.050000   9.306669  13.713583   6.744237
    47  H    7.028461   7.436669   8.050000  12.001413   6.218758
    48  H   12.447422  13.647090  13.172875   8.050000   4.954602
                   26         27         28         29         30
    26  S    0.000000
    27  C    5.324075   0.000000
    28  C    5.667383   1.393137   0.000000
    29  C    4.928650   2.438660   1.410304   0.000000
    30  C    3.548630   2.836748   2.434665   1.390489   0.000000
    31  C    3.986363   6.243327   7.315687   7.325105   6.265166
    32  C    4.531069   7.577436   8.590473   8.481093   7.325104
    33  C    4.069299   8.079606   8.924206   8.590474   7.315687
    34  C    2.812839   7.402719   8.079605   7.577436   6.243327
    35  C    1.750707   6.005094   6.683747   6.230315   4.927339
    36  C    2.653147   5.291740   6.214263   6.064435   4.928931
    37  C    2.609819   3.866376   4.798169   4.745868   3.733405
    38  C    1.736015   3.663120   4.214913   3.795840   2.579734
    39  C    2.910750   2.459994   2.803143   2.416826   1.409162
    40  C    4.052296   1.402623   2.403462   2.788553   2.444557
    41  H    6.218759   1.086803   2.160255   3.426128   3.923440
    42  H    5.630919   3.415181   2.163228   1.086273   2.146960
    43  H    3.290459   3.923903   3.423390   2.158387   1.087302
    44  H    4.818795   6.098632   7.300091   7.516385   6.605613
    45  H    5.616882   8.374699   9.462562   9.443696   8.331604
    46  H    4.954605   9.163416   9.990782   9.615298   8.316038
    47  H    3.023743   8.073242   8.608848   7.948859   6.571988
    48  H    6.744235   2.146405   1.086328   2.164633   3.412445
                   31         32         33         34         35
    31  C    0.000000
    32  C    1.390489   0.000000
    33  C    2.434666   1.410304   0.000000
    34  C    2.836750   2.438660   1.393137   0.000000
    35  C    2.444556   2.788550   2.403460   1.402622   0.000000
    36  C    1.409163   2.416825   2.803143   2.459994   1.424132
    37  C    2.579734   3.795839   4.214913   3.663121   2.336551
    38  C    3.733404   4.745867   4.798168   3.866376   2.477113
    39  C    4.928931   6.064435   6.214263   5.291739   3.905658
    40  C    4.927338   6.230314   6.683746   6.005093   4.610503
    41  H    6.571990   7.948861   8.608851   8.073244   6.699392
    42  H    8.331605   9.443696   9.462562   8.374698   7.072136
    43  H    6.605612   7.516383   7.300089   6.098630   4.902741
    44  H    1.087303   2.158387   3.423391   3.923905   3.432447
    45  H    2.146959   1.086273   2.163227   3.415181   3.874555
    46  H    3.412445   2.164633   1.086328   2.146407   3.389656
    47  H    3.923441   3.426129   2.160256   1.086802   2.169053
    48  H    8.316037   9.615296   9.990781   9.163414   7.766190
                   36         37         38         39         40
    36  C    0.000000
    37  C    1.429564   0.000000
    38  C    2.361669   1.390818   0.000000
    39  C    3.647999   2.361670   1.429564   0.000000
    40  C    3.905657   2.477112   2.336551   1.424133   0.000000
    41  H    5.807610   4.430653   4.504973   3.447304   2.169054
    42  H    7.033813   5.760478   4.709883   3.402697   3.874558
    43  H    5.210461   4.221724   2.886940   2.166846   3.432447
    44  H    2.166848   2.886941   4.221724   5.210463   4.902740
    45  H    3.402696   4.709882   5.760477   7.033812   7.072134
    46  H    3.889214   5.300025   5.835413   7.259688   7.766190
    47  H    3.447303   4.504972   4.430651   5.807607   6.699390
    48  H    7.259688   5.835412   5.300024   3.889214   3.389656
                   41         42         43         44         45
    41  H    0.000000
    42  H    4.314058   0.000000
    43  H    5.010647   2.483523   0.000000
    44  H    6.248351   8.568619   7.097914   0.000000
    45  H    8.645583  10.430619   8.568617   2.483523   0.000000
    46  H    9.694165  10.459676   8.231747   4.313194   2.483787
    47  H    8.827034   8.645580   6.248347   5.010648   4.314058
    48  H    2.481240   2.483789   4.313193   8.231747  10.459675
                   46         47         48
    46  H    0.000000
    47  H    2.481244   0.000000
    48  H   11.061203   9.694162   0.000000
 Stoichiometry    C28H16S4
 Framework group  C1[X(C28H16S4)]
 Deg. of freedom   138
 Full point group                 C1      NOp   1
 Largest Abelian subgroup         C1      NOp   1
 Largest concise Abelian subgroup C1      NOp   1
                         Standard orientation:                         
 ---------------------------------------------------------------------
 Center     Atomic      Atomic             Coordinates (Angstroms)
 Number     Number       Type             X           Y           Z
 ---------------------------------------------------------------------
      1         16           0        3.024331   -0.751883   -1.845044
      2         16           0        5.010436    1.008455    1.421761
      3          6           0        3.645625   -3.418759   -1.201755
      4          6           0        4.250410   -4.326030   -0.334619
      5          6           0        4.961802   -3.880406    0.798650
      6          6           0        5.039171   -2.525627    1.102043
      7          6           0        2.995592    2.782200   -1.525324
      8          6           0        3.072964    4.136979   -1.221932
      9          6           0        3.784362    4.582604   -0.088667
     10          6           0        4.389151    3.675333    0.778467
     11          6           0        4.330867    2.308995    0.466902
     12          6           0        3.592075    1.844762   -0.658631
     13          6           0        3.675932    0.420128   -0.742522
     14          6           0        4.358834   -0.163554    0.319238
     15          6           0        4.442693   -1.588188    0.235347
     16          6           0        3.703905   -2.052420   -0.890192
     17          1           0        3.097749   -3.766072   -2.073734
     18          1           0        5.427362   -4.606888    1.458551
     19          1           0        5.591170   -2.182946    1.973876
     20          1           0        2.443588    2.439519   -2.397156
     21          1           0        2.607396    4.863461   -1.881827
     22          1           0        3.831096    5.644973    0.133364
     23          1           0        4.937029    4.022643    1.650444
     24          1           0        4.203679   -5.388398   -0.556654
     25         16           0       -5.010437   -1.008456   -1.421759
     26         16           0       -3.024332    0.751881    1.845045
     27          6           0       -4.389143   -3.675333   -0.778471
     28          6           0       -3.784358   -4.582603    0.088665
     29          6           0       -3.072966   -4.136980    1.221934
     30          6           0       -2.995598   -2.782200    1.525327
     31          6           0       -5.039177    2.525627   -1.102040
     32          6           0       -4.961804    3.880406   -0.798648
     33          6           0       -4.250406    4.326031    0.334617
     34          6           0       -3.645617    3.418760    1.201751
     35          6           0       -3.703901    2.052422    0.890187
     36          6           0       -4.442693    1.588189   -0.235347
     37          6           0       -4.358836    0.163554   -0.319238
     38          6           0       -3.675935   -0.420127    0.742523
     39          6           0       -3.592075   -1.844762    0.658631
     40          6           0       -4.330864   -2.308994   -0.466907
     41          1           0       -4.937019   -4.022645   -1.650450
     42          1           0       -2.607406   -4.863461    1.881835
     43          1           0       -2.443598   -2.439519    2.397160
     44          1           0       -5.591180    2.182946   -1.973872
     45          1           0       -5.427372    4.606887   -1.458543
     46          1           0       -4.203672    5.388400    0.556648
     47          1           0       -3.097740    3.766070    2.073729
     48          1           0       -3.831089   -5.644971   -0.133370
 ---------------------------------------------------------------------
 Rotational constants (GHZ):           0.1240332           0.0584357           0.0441061
 Counterpoise: doing full-system calculation.
 Standard basis: 6-311G(d,p) (5D, 7F)
 There are   736 symmetry adapted cartesian basis functions of A   symmetry.
 There are   704 symmetry adapted basis functions of A   symmetry.
   704 basis functions,  1208 primitive gaussians,   736 cartesian basis functions
   124 alpha electrons      124 beta electrons
       nuclear repulsion energy      3300.4083043978 Hartrees.
 NAtoms=   48 NActive=   48 NUniq=   48 SFac= 1.00D+00 NAtFMM=   60 NAOKFM=F Big=F
 Integral buffers will be    131072 words long.
 Raffenetti 2 integral format.
 Two-electron integral symmetry is turned on.
 Nuclear repulsion after empirical dispersion term =     3300.3650086699 Hartrees.
 One-electron integrals computed using PRISM.
 NBasis=   704 RedAO= T EigKep=  1.75D-04  NBF=   704
 NBsUse=   704 1.00D-06 EigRej= -1.00D+00 NBFU=   704
 ExpMin= 7.71D-02 ExpMax= 9.34D+04 ExpMxC= 3.17D+03 IAcc=3 IRadAn=         5 AccDes= 0.00D+00
 Harris functional with IExCor=  402 and IRadAn=       5 diagonalized for initial guess.
 HarFok:  IExCor=  402 AccDes= 0.00D+00 IRadAn=         5 IDoV= 1 UseB2=F ITyADJ=14
 ICtDFT=  3500011 ScaDFX=  1.000000  1.000000  1.000000  1.000000
 FoFCou: FMM=F IPFlag=           0 FMFlag=      100000 FMFlg1=           0
         NFxFlg=           0 DoJE=T BraDBF=F KetDBF=T FulRan=T
         wScrn=  0.000000 ICntrl=       500 IOpCl=  0 I1Cent=   200000004 NGrid=           0
         NMat0=    1 NMatS0=      1 NMatT0=    0 NMatD0=    1 NMtDS0=    0 NMtDT0=    0
 Petite list used in FoFCou.
 Requested convergence on RMS density matrix=1.00D-08 within 128 cycles.
 Requested convergence on MAX density matrix=1.00D-06.
 Requested convergence on             energy=1.00D-06.
 No special actions if energy rises.
 Integral accuracy reduced to 1.0D-05 until final iterations.
 Initial convergence to 1.0D-05 achieved.  Increase integral accuracy.
 SCF Done:  E(RB3LYP) =  -2669.79520598     A.U. after   14 cycles
            NFock= 14  Conv=0.81D-08     -V/T= 2.0026

 **********************************************************************

            Population analysis using the SCF density.

 **********************************************************************

 Orbital symmetries:
       Occupied  (A) (A) (A) (A) (A) (A) (A) (A) (A) (A) (A) (A)
                 (A) (A) (A) (A) (A) (A) (A) (A) (A) (A) (A) (A)
                 (A) (A) (A) (A) (A) (A) (A) (A) (A) (A) (A) (A)
                 (A) (A) (A) (A) (A) (A) (A) (A) (A) (A) (A) (A)
                 (A) (A) (A) (A) (A) (A) (A) (A) (A) (A) (A) (A)
                 (A) (A) (A) (A) (A) (A) (A) (A) (A) (A) (A) (A)
                 (A) (A) (A) (A) (A) (A) (A) (A) (A) (A) (A) (A)
                 (A) (A) (A) (A) (A) (A) (A) (A) (A) (A) (A) (A)
                 (A) (A) (A) (A) (A) (A) (A) (A) (A) (A) (A) (A)
                 (A) (A) (A) (A) (A) (A) (A) (A) (A) (A) (A) (A)
                 (A) (A) (A) (A)
       Virtual   (A) (A) (A) (A) (A) (A) (A) (A) (A) (A) (A) (A)
                 (A) (A) (A) (A) (A) (A) (A) (A) (A) (A) (A) (A)
                 (A) (A) (A) (A) (A) (A) (A) (A) (A) (A) (A) (A)
                 (A) (A) (A) (A) (A) (A) (A) (A) (A) (A) (A) (A)
                 (A) (A) (A) (A) (A) (A) (A) (A) (A) (A) (A) (A)
                 (A) (A) (A) (A) (A) (A) (A) (A) (A) (A) (A) (A)
                 (A) (A) (A) (A) (A) (A) (A) (A) (A) (A) (A) (A)
                 (A) (A) (A) (A) (A) (A) (A) (A) (A) (A) (A) (A)
                 (A) (A) (A) (A) (A) (A) (A) (A) (A) (A) (A) (A)
                 (A) (A) (A) (A) (A) (A) (A) (A) (A) (A) (A) (A)
                 (A) (A) (A) (A) (A) (A) (A) (A) (A) (A) (A) (A)
                 (A) (A) (A) (A) (A) (A) (A) (A) (A) (A) (A) (A)
                 (A) (A) (A) (A) (A) (A) (A) (A) (A) (A) (A) (A)
                 (A) (A) (A) (A) (A) (A) (A) (A) (A) (A) (A) (A)
                 (A) (A) (A) (A) (A) (A) (A) (A) (A) (A) (A) (A)
                 (A) (A) (A) (A) (A) (A) (A) (A) (A) (A) (A) (A)
                 (A) (A) (A) (A) (A) (A) (A) (A) (A) (A) (A) (A)
                 (A) (A) (A) (A) (A) (A) (A) (A) (A) (A) (A) (A)
                 (A) (A) (A) (A) (A) (A) (A) (A) (A) (A) (A) (A)
                 (A) (A) (A) (A) (A) (A) (A) (A) (A) (A) (A) (A)
                 (A) (A) (A) (A) (A) (A) (A) (A) (A) (A) (A) (A)
                 (A) (A) (A) (A) (A) (A) (A) (A) (A) (A) (A) (A)
                 (A) (A) (A) (A) (A) (A) (A) (A) (A) (A) (A) (A)
                 (A) (A) (A) (A) (A) (A) (A) (A) (A) (A) (A) (A)
                 (A) (A) (A) (A) (A) (A) (A) (A) (A) (A) (A) (A)
                 (A) (A) (A) (A) (A) (A) (A) (A) (A) (A) (A) (A)
                 (A) (A) (A) (A) (A) (A) (A) (A) (A) (A) (A) (A)
                 (A) (A) (A) (A) (A) (A) (A) (A) (A) (A) (A) (A)
                 (A) (A) (A) (A) (A) (A) (A) (A) (A) (A) (A) (A)
                 (A) (A) (A) (A) (A) (A) (A) (A) (A) (A) (A) (A)
                 (A) (A) (A) (A) (A) (A) (A) (A) (A) (A) (A) (A)
                 (A) (A) (A) (A) (A) (A) (A) (A) (A) (A) (A) (A)
                 (A) (A) (A) (A) (A) (A) (A) (A) (A) (A) (A) (A)
                 (A) (A) (A) (A) (A) (A) (A) (A) (A) (A) (A) (A)
                 (A) (A) (A) (A) (A) (A) (A) (A) (A) (A) (A) (A)
                 (A) (A) (A) (A) (A) (A) (A) (A) (A) (A) (A) (A)
                 (A) (A) (A) (A) (A) (A) (A) (A) (A) (A) (A) (A)
                 (A) (A) (A) (A) (A) (A) (A) (A) (A) (A) (A) (A)
                 (A) (A) (A) (A) (A) (A) (A) (A) (A) (A) (A) (A)
                 (A) (A) (A) (A) (A) (A) (A) (A) (A) (A) (A) (A)
                 (A) (A) (A) (A) (A) (A) (A) (A) (A) (A) (A) (A)
                 (A) (A) (A) (A) (A) (A) (A) (A) (A) (A) (A) (A)
                 (A) (A) (A) (A) (A) (A) (A) (A) (A) (A) (A) (A)
                 (A) (A) (A) (A) (A) (A) (A) (A) (A) (A) (A) (A)
                 (A) (A) (A) (A) (A) (A) (A) (A) (A) (A) (A) (A)
                 (A) (A) (A) (A) (A) (A) (A) (A) (A) (A) (A) (A)
                 (A) (A) (A) (A) (A) (A) (A) (A) (A) (A) (A) (A)
                 (A) (A) (A) (A) (A) (A) (A) (A) (A) (A) (A) (A)
                 (A) (A) (A) (A)
 The electronic state is 1-A.
 Alpha  occ. eigenvalues --  -88.87962 -88.87962 -88.87917 -88.87917 -10.21629
 Alpha  occ. eigenvalues --  -10.21629 -10.21614 -10.21614 -10.21133 -10.21133
 Alpha  occ. eigenvalues --  -10.21079 -10.21079 -10.19885 -10.19885 -10.19876
 Alpha  occ. eigenvalues --  -10.19876 -10.18888 -10.18888 -10.18875 -10.18875
 Alpha  occ. eigenvalues --  -10.18597 -10.18597 -10.18561 -10.18561 -10.18283
 Alpha  occ. eigenvalues --  -10.18283 -10.18282 -10.18282 -10.18151 -10.18151
 Alpha  occ. eigenvalues --  -10.18122 -10.18122  -7.96617  -7.96617  -7.96569
 Alpha  occ. eigenvalues --   -7.96569  -5.92947  -5.92947  -5.92900  -5.92900
 Alpha  occ. eigenvalues --   -5.92588  -5.92588  -5.92540  -5.92540  -5.92115
 Alpha  occ. eigenvalues --   -5.92115  -5.92067  -5.92067  -0.92133  -0.92133
 Alpha  occ. eigenvalues --   -0.88052  -0.88052  -0.83981  -0.83981  -0.81931
 Alpha  occ. eigenvalues --   -0.81931  -0.77600  -0.77600  -0.77199  -0.77199
 Alpha  occ. eigenvalues --   -0.73796  -0.73796  -0.71968  -0.71968  -0.69851
 Alpha  occ. eigenvalues --   -0.69851  -0.64451  -0.64451  -0.61376  -0.61376
 Alpha  occ. eigenvalues --   -0.59212  -0.59212  -0.58308  -0.58308  -0.56827
 Alpha  occ. eigenvalues --   -0.56827  -0.51268  -0.51268  -0.50061  -0.50061
 Alpha  occ. eigenvalues --   -0.48941  -0.48941  -0.47342  -0.47342  -0.45498
 Alpha  occ. eigenvalues --   -0.45498  -0.45341  -0.45341  -0.43836  -0.43836
 Alpha  occ. eigenvalues --   -0.43302  -0.43302  -0.42956  -0.42953  -0.40674
 Alpha  occ. eigenvalues --   -0.40674  -0.40345  -0.40345  -0.39026  -0.39025
 Alpha  occ. eigenvalues --   -0.37136  -0.37136  -0.36479  -0.36479  -0.36045
 Alpha  occ. eigenvalues --   -0.36045  -0.34594  -0.34594  -0.34396  -0.34395
 Alpha  occ. eigenvalues --   -0.34387  -0.34386  -0.32546  -0.32540  -0.28716
 Alpha  occ. eigenvalues --   -0.28713  -0.28050  -0.28049  -0.24816  -0.24816
 Alpha  occ. eigenvalues --   -0.22711  -0.22708  -0.20978  -0.20972
 Alpha virt. eigenvalues --   -0.05475  -0.05473  -0.02210  -0.02185  -0.01443
 Alpha virt. eigenvalues --   -0.01441  -0.00375  -0.00355   0.00679   0.00686
 Alpha virt. eigenvalues --    0.01983   0.01989   0.04167   0.04168   0.04291
 Alpha virt. eigenvalues --    0.04305   0.05065   0.05070   0.06391   0.06409
 Alpha virt. eigenvalues --    0.07512   0.07571   0.08023   0.08045   0.08503
 Alpha virt. eigenvalues --    0.08519   0.11411   0.11413   0.12283   0.12336
 Alpha virt. eigenvalues --    0.13017   0.13161   0.13246   0.13278   0.13331
 Alpha virt. eigenvalues --    0.13437   0.14149   0.14173   0.16002   0.16037
 Alpha virt. eigenvalues --    0.16306   0.16344   0.17532   0.18187   0.19369
 Alpha virt. eigenvalues --    0.19841   0.20831   0.20837   0.23160   0.23163
 Alpha virt. eigenvalues --    0.23313   0.23322   0.24475   0.24490   0.27039
 Alpha virt. eigenvalues --    0.27055   0.27708   0.27714   0.27824   0.27829
 Alpha virt. eigenvalues --    0.28577   0.28581   0.29145   0.29146   0.29618
 Alpha virt. eigenvalues --    0.29628   0.33028   0.33042   0.34617   0.34620
 Alpha virt. eigenvalues --    0.35992   0.35996   0.37295   0.37310   0.37599
 Alpha virt. eigenvalues --    0.37606   0.38367   0.38380   0.38948   0.38953
 Alpha virt. eigenvalues --    0.39030   0.39042   0.39918   0.39937   0.40281
 Alpha virt. eigenvalues --    0.40285   0.40760   0.40770   0.41790   0.41793
 Alpha virt. eigenvalues --    0.42244   0.42275   0.42669   0.42675   0.42817
 Alpha virt. eigenvalues --    0.42818   0.44265   0.44268   0.44604   0.44626
 Alpha virt. eigenvalues --    0.44748   0.44750   0.45541   0.45545   0.45725
 Alpha virt. eigenvalues --    0.45816   0.45956   0.45970   0.46013   0.46013
 Alpha virt. eigenvalues --    0.48538   0.48544   0.49456   0.49462   0.49612
 Alpha virt. eigenvalues --    0.49627   0.50903   0.50941   0.51760   0.51781
 Alpha virt. eigenvalues --    0.53406   0.53407   0.54960   0.54968   0.56451
 Alpha virt. eigenvalues --    0.56462   0.57306   0.57318   0.58203   0.58211
 Alpha virt. eigenvalues --    0.58831   0.58848   0.59229   0.59241   0.59571
 Alpha virt. eigenvalues --    0.59576   0.60051   0.60053   0.60488   0.60492
 Alpha virt. eigenvalues --    0.60573   0.60577   0.61789   0.61800   0.62199
 Alpha virt. eigenvalues --    0.62207   0.63767   0.63808   0.63824   0.63862
 Alpha virt. eigenvalues --    0.64802   0.64807   0.66252   0.66270   0.69734
 Alpha virt. eigenvalues --    0.69745   0.70358   0.70390   0.72025   0.72029
 Alpha virt. eigenvalues --    0.72404   0.72405   0.72925   0.72927   0.73307
 Alpha virt. eigenvalues --    0.73308   0.73801   0.73811   0.74779   0.74821
 Alpha virt. eigenvalues --    0.75949   0.75960   0.76717   0.76766   0.77661
 Alpha virt. eigenvalues --    0.77669   0.79001   0.79087   0.80297   0.80300
 Alpha virt. eigenvalues --    0.80329   0.80357   0.82000   0.82009   0.83382
 Alpha virt. eigenvalues --    0.83387   0.84366   0.84373   0.84813   0.84829
 Alpha virt. eigenvalues --    0.85910   0.85923   0.86135   0.86181   0.88435
 Alpha virt. eigenvalues --    0.88562   0.89071   0.89076   0.90449   0.90455
 Alpha virt. eigenvalues --    0.90905   0.90926   0.92432   0.92449   0.93626
 Alpha virt. eigenvalues --    0.93670   0.96124   0.96149   0.96887   0.96898
 Alpha virt. eigenvalues --    0.96909   0.96911   0.98850   0.98857   0.99559
 Alpha virt. eigenvalues --    0.99576   1.00424   1.00443   1.01839   1.01844
 Alpha virt. eigenvalues --    1.02993   1.03000   1.06215   1.06218   1.06533
 Alpha virt. eigenvalues --    1.06548   1.07696   1.07698   1.09069   1.09091
 Alpha virt. eigenvalues --    1.09110   1.09136   1.09516   1.09519   1.10885
 Alpha virt. eigenvalues --    1.10887   1.11437   1.11442   1.15898   1.15911
 Alpha virt. eigenvalues --    1.18417   1.18445   1.20424   1.20439   1.21985
 Alpha virt. eigenvalues --    1.21993   1.22468   1.22489   1.24702   1.24721
 Alpha virt. eigenvalues --    1.28111   1.28130   1.28690   1.28781   1.29120
 Alpha virt. eigenvalues --    1.29121   1.34948   1.34965   1.38857   1.38863
 Alpha virt. eigenvalues --    1.40728   1.40734   1.41640   1.41640   1.42938
 Alpha virt. eigenvalues --    1.42939   1.44347   1.44353   1.44968   1.44968
 Alpha virt. eigenvalues --    1.47299   1.47299   1.47927   1.47928   1.49097
 Alpha virt. eigenvalues --    1.49097   1.52540   1.52540   1.54000   1.54007
 Alpha virt. eigenvalues --    1.54106   1.54109   1.56081   1.56086   1.56312
 Alpha virt. eigenvalues --    1.56561   1.58050   1.58058   1.59032   1.59061
 Alpha virt. eigenvalues --    1.59794   1.59799   1.60617   1.60764   1.61168
 Alpha virt. eigenvalues --    1.61171   1.61525   1.61532   1.62312   1.62338
 Alpha virt. eigenvalues --    1.63143   1.63171   1.67223   1.67326   1.69451
 Alpha virt. eigenvalues --    1.69452   1.70512   1.70558   1.72105   1.72106
 Alpha virt. eigenvalues --    1.73012   1.73013   1.73537   1.73538   1.74718
 Alpha virt. eigenvalues --    1.74719   1.75776   1.75776   1.80350   1.80379
 Alpha virt. eigenvalues --    1.80592   1.80609   1.81715   1.81730   1.82505
 Alpha virt. eigenvalues --    1.82505   1.83410   1.83414   1.83960   1.83978
 Alpha virt. eigenvalues --    1.84389   1.84389   1.86849   1.86850   1.88931
 Alpha virt. eigenvalues --    1.88936   1.89518   1.89519   1.89590   1.89590
 Alpha virt. eigenvalues --    1.89981   1.89986   1.90964   1.90990   1.91081
 Alpha virt. eigenvalues --    1.91084   1.93814   1.93832   1.93956   1.93959
 Alpha virt. eigenvalues --    1.94038   1.94058   1.96300   1.96304   1.96344
 Alpha virt. eigenvalues --    1.96349   1.99030   1.99061   1.99643   1.99643
 Alpha virt. eigenvalues --    2.00209   2.00212   2.01269   2.01274   2.02598
 Alpha virt. eigenvalues --    2.02602   2.03596   2.03602   2.06667   2.06671
 Alpha virt. eigenvalues --    2.08200   2.08201   2.11097   2.11122   2.12170
 Alpha virt. eigenvalues --    2.12170   2.14268   2.14268   2.22580   2.22589
 Alpha virt. eigenvalues --    2.25311   2.25312   2.26458   2.26458   2.26759
 Alpha virt. eigenvalues --    2.26765   2.27791   2.27805   2.32805   2.32807
 Alpha virt. eigenvalues --    2.32954   2.32956   2.33028   2.33030   2.33432
 Alpha virt. eigenvalues --    2.33435   2.34155   2.34156   2.35912   2.35915
 Alpha virt. eigenvalues --    2.37614   2.37617   2.40623   2.40626   2.47993
 Alpha virt. eigenvalues --    2.48000   2.52145   2.52146   2.53712   2.53729
 Alpha virt. eigenvalues --    2.55636   2.55652   2.56495   2.56495   2.57411
 Alpha virt. eigenvalues --    2.57412   2.60011   2.60013   2.60353   2.60354
 Alpha virt. eigenvalues --    2.61536   2.61543   2.61748   2.61751   2.62305
 Alpha virt. eigenvalues --    2.62307   2.63856   2.63857   2.64600   2.64601
 Alpha virt. eigenvalues --    2.65275   2.65276   2.66047   2.66048   2.69055
 Alpha virt. eigenvalues --    2.69063   2.69079   2.69080   2.69146   2.69152
 Alpha virt. eigenvalues --    2.70540   2.70594   2.71840   2.71849   2.73681
 Alpha virt. eigenvalues --    2.73685   2.77517   2.77521   2.80141   2.80142
 Alpha virt. eigenvalues --    2.81501   2.81502   2.81795   2.81807   2.82352
 Alpha virt. eigenvalues --    2.82374   2.83329   2.83331   2.83737   2.83739
 Alpha virt. eigenvalues --    2.87817   2.87817   2.91865   2.91866   2.92527
 Alpha virt. eigenvalues --    2.92556   2.97182   2.97192   3.04131   3.04140
 Alpha virt. eigenvalues --    3.04454   3.04457   3.07452   3.07452   3.10537
 Alpha virt. eigenvalues --    3.10537   3.15663   3.15672   3.17341   3.17348
 Alpha virt. eigenvalues --    3.23527   3.23532   3.24427   3.24431   3.29825
 Alpha virt. eigenvalues --    3.29825   3.30426   3.30428   3.32059   3.32059
 Alpha virt. eigenvalues --    3.34551   3.34552   3.38877   3.38884   3.42787
 Alpha virt. eigenvalues --    3.42788   3.44738   3.44744   3.45922   3.45929
 Alpha virt. eigenvalues --    3.50655   3.50656   3.54715   3.54719   3.55980
 Alpha virt. eigenvalues --    3.55981   3.62810   3.62812   3.76124   3.76128
 Alpha virt. eigenvalues --    3.82351   3.82359   3.98731   3.98732   4.00575
 Alpha virt. eigenvalues --    4.00576   4.01742   4.01742   4.03939   4.03941
 Alpha virt. eigenvalues --    4.11638   4.11642   4.11995   4.11996   4.19942
 Alpha virt. eigenvalues --    4.19946   4.55108   4.55115   4.79853   4.79854
 Alpha virt. eigenvalues --    4.79981   4.79981   7.81287   7.81302   7.84125
 Alpha virt. eigenvalues --    7.84128  17.19637  17.19970  17.21164  17.21355
 Alpha virt. eigenvalues --   17.43882  17.43899  17.51360  17.51369  17.52458
 Alpha virt. eigenvalues --   17.52467  17.53550  17.53560  23.35528  23.35540
 Alpha virt. eigenvalues --   23.53966  23.53968  23.69080  23.69082  23.85810
 Alpha virt. eigenvalues --   23.85813  23.85978  23.85980  23.90311  23.90311
 Alpha virt. eigenvalues --   23.92241  23.92241  23.98293  23.98293  24.01272
 Alpha virt. eigenvalues --   24.01272  24.03905  24.03905  24.07436  24.07436
 Alpha virt. eigenvalues --   24.07559  24.07559  24.14810  24.14810  24.14921
 Alpha virt. eigenvalues --   24.14922 188.92683 188.92700 188.95560 188.95564
          Condensed to atoms (all electrons):
               1          2          3          4          5          6
     1  S   15.364175   0.009492  -0.061381   0.005895  -0.000116   0.009405
     2  S    0.009492  15.373221  -0.000171  -0.000039   0.000327   0.002359
     3  C   -0.061381  -0.000171   4.861285   0.512323  -0.040414  -0.053870
     4  C    0.005895  -0.000039   0.512323   4.880811   0.492222  -0.051622
     5  C   -0.000116   0.000327  -0.040414   0.492222   4.880059   0.511263
     6  C    0.009405   0.002359  -0.053870  -0.051622   0.511263   4.876985
     7  C    0.002409   0.009398  -0.000000   0.000000  -0.000000  -0.000001
     8  C    0.000327  -0.000100   0.000000  -0.000000   0.000000  -0.000000
     9  C   -0.000038   0.005897  -0.000000   0.000000  -0.000000   0.000000
    10  C   -0.000171  -0.061566   0.000000  -0.000000   0.000000  -0.000001
    11  C    0.008611   0.305997   0.000034  -0.000002   0.000002  -0.000301
    12  C   -0.070497  -0.088287  -0.000510   0.000027  -0.000018   0.000096
    13  C    0.317633  -0.092110  -0.000514  -0.000021  -0.000615   0.011576
    14  C   -0.092074   0.316245   0.017369  -0.001061   0.013358  -0.089607
    15  C   -0.088036  -0.070710   0.007049  -0.050257  -0.029710   0.485488
    16  C    0.307213   0.008693   0.443290  -0.047760  -0.054805  -0.044854
    17  H   -0.003166   0.000022   0.419330  -0.037166   0.007337  -0.000565
    18  H    0.000109  -0.000002   0.007019  -0.041971   0.411163  -0.038205
    19  H   -0.000638   0.003292  -0.000915   0.007567  -0.039670   0.419717
    20  H    0.003270  -0.000642  -0.000003   0.000000  -0.000000   0.000000
    21  H   -0.000002   0.000110   0.000000  -0.000000  -0.000000   0.000000
    22  H   -0.000003  -0.000372  -0.000000   0.000000   0.000000   0.000000
    23  H    0.000023  -0.003206   0.000000  -0.000000   0.000000  -0.000000
    24  H   -0.000370  -0.000003  -0.041210   0.413857  -0.042880   0.007642
    25  S    0.000001   0.000000  -0.000000  -0.000000   0.000000   0.000000
    26  S    0.000009   0.000001  -0.000000   0.000000   0.000000   0.000000
    27  C   -0.000000  -0.000000   0.000000   0.000000  -0.000000  -0.000000
    28  C    0.000000   0.000000  -0.000000  -0.000000   0.000000  -0.000000
    29  C    0.000000  -0.000000   0.000000  -0.000000   0.000000   0.000000
    30  C    0.000001  -0.000000  -0.000000  -0.000000  -0.000000  -0.000000
    31  C    0.000000   0.000000  -0.000000  -0.000000   0.000000   0.000000
    32  C    0.000000   0.000000   0.000000   0.000000  -0.000000   0.000000
    33  C    0.000000  -0.000000  -0.000000  -0.000000   0.000000  -0.000000
    34  C   -0.000000  -0.000000  -0.000000  -0.000000   0.000000  -0.000000
    35  C   -0.000000  -0.000000   0.000000   0.000000  -0.000000  -0.000000
    36  C   -0.000000  -0.000000  -0.000000  -0.000000   0.000000  -0.000000
    37  C   -0.000000  -0.000000   0.000000  -0.000000   0.000000  -0.000000
    38  C   -0.000000  -0.000000   0.000000   0.000000  -0.000000  -0.000000
    39  C    0.000001   0.000000   0.000000   0.000000  -0.000000  -0.000000
    40  C    0.000000   0.000000  -0.000000  -0.000000   0.000000   0.000000
    41  H   -0.000000  -0.000000   0.000000   0.000000   0.000000  -0.000000
    42  H   -0.000000  -0.000000   0.000000   0.000000   0.000000  -0.000000
    43  H    0.000001   0.000000  -0.000000  -0.000000   0.000000   0.000000
    44  H    0.000000   0.000000  -0.000000  -0.000000   0.000000   0.000000
    45  H   -0.000000  -0.000000   0.000000   0.000000  -0.000000  -0.000000
    46  H    0.000000  -0.000000  -0.000000  -0.000000   0.000000  -0.000000
    47  H    0.000000   0.000000  -0.000000   0.000000   0.000000  -0.000000
    48  H    0.000000   0.000000  -0.000000  -0.000000   0.000000   0.000000
               7          8          9         10         11         12
     1  S    0.002409   0.000327  -0.000038  -0.000171   0.008611  -0.070497
     2  S    0.009398  -0.000100   0.005897  -0.061566   0.305997  -0.088287
     3  C   -0.000000   0.000000  -0.000000   0.000000   0.000034  -0.000510
     4  C    0.000000  -0.000000   0.000000  -0.000000  -0.000002   0.000027
     5  C   -0.000000   0.000000  -0.000000   0.000000   0.000002  -0.000018
     6  C   -0.000001  -0.000000   0.000000  -0.000001  -0.000301   0.000096
     7  C    4.872794   0.511934  -0.051812  -0.053510  -0.045452   0.486683
     8  C    0.511934   4.878176   0.492421  -0.040660  -0.054646  -0.030029
     9  C   -0.051812   0.492421   4.880797   0.512495  -0.048024  -0.049896
    10  C   -0.053510  -0.040660   0.512495   4.862654   0.443543   0.006429
    11  C   -0.045452  -0.054646  -0.048024   0.443543   5.390598   0.412386
    12  C    0.486683  -0.030029  -0.049896   0.006429   0.412386   4.947943
    13  C   -0.088834   0.013309  -0.001029   0.017234  -0.096417   0.393333
    14  C    0.011520  -0.000614  -0.000023  -0.000471  -0.086778  -0.014511
    15  C    0.000093  -0.000018   0.000027  -0.000512   0.003429   0.021067
    16  C   -0.000302   0.000002  -0.000002   0.000033  -0.000008   0.003482
    17  H   -0.000000   0.000000  -0.000000   0.000000   0.000001  -0.000009
    18  H    0.000000  -0.000000  -0.000000   0.000000  -0.000000  -0.000000
    19  H    0.000000  -0.000000   0.000000  -0.000003  -0.000108   0.000013
    20  H    0.419483  -0.039252   0.007524  -0.000894   0.008905  -0.045400
    21  H   -0.037837   0.411178  -0.042089   0.007015   0.000277   0.007539
    22  H    0.007643  -0.042774   0.413855  -0.041403   0.008904  -0.000338
    23  H   -0.000573   0.007352  -0.037210   0.419504  -0.047567   0.007232
    24  H    0.000000   0.000000   0.000000  -0.000000  -0.000000  -0.000000
    25  S   -0.000000  -0.000000   0.000000  -0.000000   0.000000   0.000000
    26  S    0.000001   0.000000   0.000000  -0.000000   0.000000   0.000001
    27  C   -0.000000  -0.000000   0.000000   0.000000   0.000000  -0.000000
    28  C    0.000000   0.000000  -0.000000   0.000000   0.000000  -0.000000
    29  C    0.000000  -0.000000   0.000000  -0.000000  -0.000000   0.000000
    30  C    0.000000   0.000000   0.000000  -0.000000  -0.000000   0.000000
    31  C   -0.000000   0.000000  -0.000000  -0.000000   0.000000  -0.000000
    32  C   -0.000000   0.000000   0.000000  -0.000000   0.000000  -0.000000
    33  C   -0.000000  -0.000000  -0.000000   0.000000  -0.000000   0.000000
    34  C   -0.000000   0.000000  -0.000000   0.000000  -0.000000   0.000000
    35  C   -0.000000  -0.000000   0.000000   0.000000   0.000000  -0.000000
    36  C   -0.000000  -0.000000   0.000000   0.000000  -0.000000  -0.000000
    37  C    0.000000   0.000000  -0.000000   0.000000   0.000000   0.000000
    38  C   -0.000000   0.000000  -0.000000   0.000000  -0.000000   0.000000
    39  C    0.000000   0.000000  -0.000000  -0.000000  -0.000000  -0.000000
    40  C   -0.000000  -0.000000   0.000000   0.000000  -0.000000  -0.000000
    41  H    0.000000   0.000000   0.000000  -0.000000  -0.000000   0.000000
    42  H   -0.000000  -0.000000   0.000000  -0.000000  -0.000000   0.000000
    43  H    0.000000   0.000000  -0.000000  -0.000000   0.000000  -0.000000
    44  H    0.000000   0.000000  -0.000000  -0.000000   0.000000   0.000000
    45  H   -0.000000   0.000000   0.000000   0.000000  -0.000000  -0.000000
    46  H   -0.000000  -0.000000  -0.000000  -0.000000   0.000000   0.000000
    47  H    0.000000   0.000000   0.000000   0.000000  -0.000000  -0.000000
    48  H    0.000000   0.000000  -0.000000   0.000000   0.000000  -0.000000
              13         14         15         16         17         18
     1  S    0.317633  -0.092074  -0.088036   0.307213  -0.003166   0.000109
     2  S   -0.092110   0.316245  -0.070710   0.008693   0.000022  -0.000002
     3  C   -0.000514   0.017369   0.007049   0.443290   0.419330   0.007019
     4  C   -0.000021  -0.001061  -0.050257  -0.047760  -0.037166  -0.041971
     5  C   -0.000615   0.013358  -0.029710  -0.054805   0.007337   0.411163
     6  C    0.011576  -0.089607   0.485488  -0.044854  -0.000565  -0.038205
     7  C   -0.088834   0.011520   0.000093  -0.000302  -0.000000   0.000000
     8  C    0.013309  -0.000614  -0.000018   0.000002   0.000000  -0.000000
     9  C   -0.001029  -0.000023   0.000027  -0.000002  -0.000000  -0.000000
    10  C    0.017234  -0.000471  -0.000512   0.000033   0.000000   0.000000
    11  C   -0.096417  -0.086778   0.003429  -0.000008   0.000001  -0.000000
    12  C    0.393333  -0.014511   0.021067   0.003482  -0.000009  -0.000000
    13  C    5.456418   0.363403  -0.014515  -0.086316  -0.000117   0.000016
    14  C    0.363403   5.460491   0.392895  -0.097199  -0.000333  -0.000469
    15  C   -0.014515   0.392895   4.951045   0.411648   0.007242   0.007572
    16  C   -0.086316  -0.097199   0.411648   5.388879  -0.047118   0.000276
    17  H   -0.000117  -0.000333   0.007242  -0.047118   0.564638  -0.000321
    18  H    0.000016  -0.000469   0.007572   0.000276  -0.000321   0.573017
    19  H    0.000092  -0.012046  -0.045780   0.008954   0.000064  -0.007675
    20  H   -0.011924   0.000094   0.000012  -0.000107   0.000000   0.000000
    21  H   -0.000470   0.000016  -0.000000  -0.000000  -0.000000   0.000000
    22  H   -0.000002   0.000010  -0.000000  -0.000000   0.000000   0.000000
    23  H   -0.000334  -0.000117  -0.000009   0.000001   0.000000  -0.000000
    24  H    0.000010  -0.000002  -0.000338   0.008881  -0.007753  -0.007484
    25  S   -0.000000  -0.000000  -0.000000  -0.000000   0.000000  -0.000000
    26  S   -0.000000  -0.000000  -0.000000  -0.000000   0.000000  -0.000000
    27  C    0.000000   0.000000   0.000000   0.000000   0.000000   0.000000
    28  C   -0.000000  -0.000000   0.000000   0.000000   0.000000   0.000000
    29  C    0.000000   0.000000  -0.000000  -0.000000   0.000000   0.000000
    30  C   -0.000000   0.000000  -0.000000  -0.000000   0.000000  -0.000000
    31  C   -0.000000  -0.000000  -0.000000  -0.000000  -0.000000  -0.000000
    32  C   -0.000000   0.000000   0.000000  -0.000000   0.000000  -0.000000
    33  C    0.000000  -0.000000  -0.000000   0.000000   0.000000   0.000000
    34  C    0.000000   0.000000  -0.000000   0.000000  -0.000000   0.000000
    35  C   -0.000000   0.000000   0.000000  -0.000000  -0.000000  -0.000000
    36  C    0.000000   0.000000  -0.000000   0.000000  -0.000000   0.000000
    37  C    0.000000  -0.000000   0.000000   0.000000   0.000000   0.000000
    38  C    0.000000   0.000000   0.000000  -0.000000  -0.000000  -0.000000
    39  C    0.000000   0.000000  -0.000000  -0.000000  -0.000000  -0.000000
    40  C   -0.000000   0.000000  -0.000000   0.000000  -0.000000  -0.000000
    41  H    0.000000   0.000000  -0.000000  -0.000000  -0.000000   0.000000
    42  H    0.000000   0.000000  -0.000000  -0.000000   0.000000  -0.000000
    43  H   -0.000000  -0.000000  -0.000000   0.000000   0.000000   0.000000
    44  H   -0.000000  -0.000000  -0.000000   0.000000   0.000000   0.000000
    45  H   -0.000000   0.000000   0.000000  -0.000000  -0.000000  -0.000000
    46  H    0.000000  -0.000000  -0.000000   0.000000  -0.000000   0.000000
    47  H   -0.000000   0.000000  -0.000000  -0.000000   0.000000  -0.000000
    48  H   -0.000000  -0.000000   0.000000   0.000000   0.000000   0.000000
              19         20         21         22         23         24
     1  S   -0.000638   0.003270  -0.000002  -0.000003   0.000023  -0.000370
     2  S    0.003292  -0.000642   0.000110  -0.000372  -0.003206  -0.000003
     3  C   -0.000915  -0.000003   0.000000  -0.000000   0.000000  -0.041210
     4  C    0.007567   0.000000  -0.000000   0.000000  -0.000000   0.413857
     5  C   -0.039670  -0.000000  -0.000000   0.000000   0.000000  -0.042880
     6  C    0.419717   0.000000   0.000000   0.000000  -0.000000   0.007642
     7  C    0.000000   0.419483  -0.037837   0.007643  -0.000573   0.000000
     8  C   -0.000000  -0.039252   0.411178  -0.042774   0.007352   0.000000
     9  C    0.000000   0.007524  -0.042089   0.413855  -0.037210   0.000000
    10  C   -0.000003  -0.000894   0.007015  -0.041403   0.419504  -0.000000
    11  C   -0.000108   0.008905   0.000277   0.008904  -0.047567  -0.000000
    12  C    0.000013  -0.045400   0.007539  -0.000338   0.007232  -0.000000
    13  C    0.000092  -0.011924  -0.000470  -0.000002  -0.000334   0.000010
    14  C   -0.012046   0.000094   0.000016   0.000010  -0.000117  -0.000002
    15  C   -0.045780   0.000012  -0.000000  -0.000000  -0.000009  -0.000338
    16  C    0.008954  -0.000107  -0.000000  -0.000000   0.000001   0.008881
    17  H    0.000064   0.000000  -0.000000   0.000000   0.000000  -0.007753
    18  H   -0.007675   0.000000   0.000000   0.000000  -0.000000  -0.007484
    19  H    0.572212   0.000000   0.000000   0.000000   0.000000  -0.000309
    20  H    0.000000   0.569771  -0.007630  -0.000307   0.000064   0.000000
    21  H    0.000000  -0.007630   0.572158  -0.007477  -0.000322   0.000000
    22  H    0.000000  -0.000307  -0.007477   0.571917  -0.007787  -0.000000
    23  H    0.000000   0.000064  -0.000322  -0.007787   0.566132   0.000000
    24  H   -0.000309   0.000000   0.000000  -0.000000   0.000000   0.571707
    25  S    0.000000   0.000000  -0.000000   0.000000  -0.000000  -0.000000
    26  S    0.000000   0.000001  -0.000000   0.000000  -0.000000   0.000000
    27  C   -0.000000  -0.000000  -0.000000   0.000000  -0.000000  -0.000000
    28  C   -0.000000  -0.000000   0.000000  -0.000000   0.000000  -0.000000
    29  C    0.000000   0.000000  -0.000000   0.000000   0.000000  -0.000000
    30  C    0.000000   0.000000  -0.000000   0.000000   0.000000  -0.000000
    31  C    0.000000   0.000000  -0.000000   0.000000  -0.000000  -0.000000
    32  C    0.000000   0.000000   0.000000   0.000000   0.000000   0.000000
    33  C   -0.000000  -0.000000   0.000000  -0.000000   0.000000  -0.000000
    34  C   -0.000000  -0.000000   0.000000  -0.000000   0.000000  -0.000000
    35  C    0.000000   0.000000  -0.000000   0.000000  -0.000000   0.000000
    36  C   -0.000000  -0.000000  -0.000000   0.000000  -0.000000  -0.000000
    37  C   -0.000000  -0.000000   0.000000  -0.000000   0.000000  -0.000000
    38  C   -0.000000  -0.000000   0.000000  -0.000000   0.000000   0.000000
    39  C    0.000000  -0.000000   0.000000  -0.000000   0.000000   0.000000
    40  C    0.000000   0.000000  -0.000000   0.000000  -0.000000   0.000000
    41  H    0.000000   0.000000  -0.000000  -0.000000   0.000000  -0.000000
    42  H    0.000000  -0.000000  -0.000000   0.000000  -0.000000   0.000000
    43  H   -0.000000   0.000000  -0.000000  -0.000000   0.000000  -0.000000
    44  H   -0.000000  -0.000000   0.000000  -0.000000   0.000000  -0.000000
    45  H    0.000000   0.000000  -0.000000   0.000000   0.000000   0.000000
    46  H   -0.000000  -0.000000   0.000000  -0.000000  -0.000000   0.000000
    47  H    0.000000   0.000000   0.000000   0.000000  -0.000000  -0.000000
    48  H   -0.000000  -0.000000   0.000000  -0.000000  -0.000000  -0.000000
              25         26         27         28         29         30
     1  S    0.000001   0.000009  -0.000000   0.000000   0.000000   0.000001
     2  S    0.000000   0.000001  -0.000000   0.000000  -0.000000  -0.000000
     3  C   -0.000000  -0.000000   0.000000  -0.000000   0.000000  -0.000000
     4  C   -0.000000   0.000000   0.000000  -0.000000  -0.000000  -0.000000
     5  C    0.000000   0.000000  -0.000000   0.000000   0.000000  -0.000000
     6  C    0.000000   0.000000  -0.000000  -0.000000   0.000000  -0.000000
     7  C   -0.000000   0.000001  -0.000000   0.000000   0.000000   0.000000
     8  C   -0.000000   0.000000  -0.000000   0.000000  -0.000000   0.000000
     9  C    0.000000   0.000000   0.000000  -0.000000   0.000000   0.000000
    10  C   -0.000000  -0.000000   0.000000   0.000000  -0.000000  -0.000000
    11  C    0.000000   0.000000   0.000000   0.000000  -0.000000  -0.000000
    12  C    0.000000   0.000001  -0.000000  -0.000000   0.000000   0.000000
    13  C   -0.000000  -0.000000   0.000000  -0.000000   0.000000  -0.000000
    14  C   -0.000000  -0.000000   0.000000  -0.000000   0.000000   0.000000
    15  C   -0.000000  -0.000000   0.000000   0.000000  -0.000000  -0.000000
    16  C   -0.000000  -0.000000   0.000000   0.000000  -0.000000  -0.000000
    17  H    0.000000   0.000000   0.000000   0.000000   0.000000   0.000000
    18  H   -0.000000  -0.000000   0.000000   0.000000   0.000000  -0.000000
    19  H    0.000000   0.000000  -0.000000  -0.000000   0.000000   0.000000
    20  H    0.000000   0.000001  -0.000000  -0.000000   0.000000   0.000000
    21  H   -0.000000  -0.000000  -0.000000   0.000000  -0.000000  -0.000000
    22  H    0.000000   0.000000   0.000000  -0.000000   0.000000   0.000000
    23  H   -0.000000  -0.000000  -0.000000   0.000000   0.000000   0.000000
    24  H   -0.000000   0.000000  -0.000000  -0.000000  -0.000000  -0.000000
    25  S   15.373219   0.009492  -0.061566   0.005897  -0.000100   0.009398
    26  S    0.009492  15.364177  -0.000171  -0.000038   0.000327   0.002409
    27  C   -0.061566  -0.000171   4.862653   0.512496  -0.040661  -0.053509
    28  C    0.005897  -0.000038   0.512496   4.880796   0.492421  -0.051813
    29  C   -0.000100   0.000327  -0.040661   0.492421   4.878176   0.511934
    30  C    0.009398   0.002409  -0.053509  -0.051813   0.511934   4.872794
    31  C    0.002359   0.009405  -0.000001   0.000000  -0.000000  -0.000001
    32  C    0.000327  -0.000116   0.000000  -0.000000   0.000000  -0.000000
    33  C   -0.000039   0.005895  -0.000000   0.000000  -0.000000   0.000000
    34  C   -0.000171  -0.061381   0.000000  -0.000000   0.000000  -0.000000
    35  C    0.008693   0.307213   0.000033  -0.000002   0.000002  -0.000302
    36  C   -0.070710  -0.088036  -0.000512   0.000027  -0.000018   0.000093
    37  C    0.316244  -0.092074  -0.000471  -0.000023  -0.000614   0.011520
    38  C   -0.092110   0.317633   0.017234  -0.001029   0.013308  -0.088833
    39  C   -0.088287  -0.070497   0.006429  -0.049896  -0.030029   0.486684
    40  C    0.305997   0.008612   0.443544  -0.048024  -0.054645  -0.045453
    41  H   -0.003206   0.000023   0.419504  -0.037210   0.007352  -0.000573
    42  H    0.000110  -0.000002   0.007015  -0.042089   0.411178  -0.037837
    43  H   -0.000642   0.003270  -0.000894   0.007524  -0.039252   0.419482
    44  H    0.003292  -0.000638  -0.000003   0.000000  -0.000000   0.000000
    45  H   -0.000002   0.000109   0.000000  -0.000000  -0.000000   0.000000
    46  H   -0.000003  -0.000370  -0.000000   0.000000   0.000000   0.000000
    47  H    0.000022  -0.003166   0.000000  -0.000000   0.000000  -0.000000
    48  H   -0.000372  -0.000003  -0.041403   0.413855  -0.042774   0.007643
              31         32         33         34         35         36
     1  S    0.000000   0.000000   0.000000  -0.000000  -0.000000  -0.000000
     2  S    0.000000   0.000000  -0.000000  -0.000000  -0.000000  -0.000000
     3  C   -0.000000   0.000000  -0.000000  -0.000000   0.000000  -0.000000
     4  C   -0.000000   0.000000  -0.000000  -0.000000   0.000000  -0.000000
     5  C    0.000000  -0.000000   0.000000   0.000000  -0.000000   0.000000
     6  C    0.000000   0.000000  -0.000000  -0.000000  -0.000000  -0.000000
     7  C   -0.000000  -0.000000  -0.000000  -0.000000  -0.000000  -0.000000
     8  C    0.000000   0.000000  -0.000000   0.000000  -0.000000  -0.000000
     9  C   -0.000000   0.000000  -0.000000  -0.000000   0.000000   0.000000
    10  C   -0.000000  -0.000000   0.000000   0.000000   0.000000   0.000000
    11  C    0.000000   0.000000  -0.000000  -0.000000   0.000000  -0.000000
    12  C   -0.000000  -0.000000   0.000000   0.000000  -0.000000  -0.000000
    13  C   -0.000000  -0.000000   0.000000   0.000000  -0.000000   0.000000
    14  C   -0.000000   0.000000  -0.000000   0.000000   0.000000   0.000000
    15  C   -0.000000   0.000000  -0.000000  -0.000000   0.000000  -0.000000
    16  C   -0.000000  -0.000000   0.000000   0.000000  -0.000000   0.000000
    17  H   -0.000000   0.000000   0.000000  -0.000000  -0.000000  -0.000000
    18  H   -0.000000  -0.000000   0.000000   0.000000  -0.000000   0.000000
    19  H    0.000000   0.000000  -0.000000  -0.000000   0.000000  -0.000000
    20  H    0.000000   0.000000  -0.000000  -0.000000   0.000000  -0.000000
    21  H   -0.000000   0.000000   0.000000   0.000000  -0.000000  -0.000000
    22  H    0.000000   0.000000  -0.000000  -0.000000   0.000000   0.000000
    23  H   -0.000000   0.000000   0.000000   0.000000  -0.000000  -0.000000
    24  H   -0.000000   0.000000  -0.000000  -0.000000   0.000000  -0.000000
    25  S    0.002359   0.000327  -0.000039  -0.000171   0.008693  -0.070710
    26  S    0.009405  -0.000116   0.005895  -0.061381   0.307213  -0.088036
    27  C   -0.000001   0.000000  -0.000000   0.000000   0.000033  -0.000512
    28  C    0.000000  -0.000000   0.000000  -0.000000  -0.000002   0.000027
    29  C   -0.000000   0.000000  -0.000000   0.000000   0.000002  -0.000018
    30  C   -0.000001  -0.000000   0.000000  -0.000000  -0.000302   0.000093
    31  C    4.876986   0.511262  -0.051622  -0.053870  -0.044854   0.485488
    32  C    0.511262   4.880059   0.492222  -0.040414  -0.054806  -0.029709
    33  C   -0.051622   0.492222   4.880812   0.512322  -0.047759  -0.050258
    34  C   -0.053870  -0.040414   0.512322   4.861286   0.443289   0.007049
    35  C   -0.044854  -0.054806  -0.047759   0.443289   5.388879   0.411648
    36  C    0.485488  -0.029709  -0.050258   0.007049   0.411648   4.951047
    37  C   -0.089608   0.013358  -0.001061   0.017369  -0.097200   0.392894
    38  C    0.011576  -0.000615  -0.000021  -0.000514  -0.086316  -0.014515
    39  C    0.000096  -0.000018   0.000027  -0.000510   0.003482   0.021067
    40  C   -0.000301   0.000002  -0.000002   0.000034  -0.000008   0.003429
    41  H   -0.000000   0.000000  -0.000000   0.000000   0.000001  -0.000009
    42  H    0.000000  -0.000000  -0.000000   0.000000  -0.000000  -0.000000
    43  H    0.000000  -0.000000   0.000000  -0.000003  -0.000107   0.000012
    44  H    0.419717  -0.039670   0.007567  -0.000915   0.008954  -0.045780
    45  H   -0.038205   0.411163  -0.041971   0.007019   0.000276   0.007572
    46  H    0.007642  -0.042880   0.413857  -0.041210   0.008881  -0.000338
    47  H   -0.000565   0.007337  -0.037167   0.419330  -0.047118   0.007242
    48  H    0.000000   0.000000   0.000000  -0.000000  -0.000000  -0.000000
              37         38         39         40         41         42
     1  S   -0.000000  -0.000000   0.000001   0.000000  -0.000000  -0.000000
     2  S   -0.000000  -0.000000   0.000000   0.000000  -0.000000  -0.000000
     3  C    0.000000   0.000000   0.000000  -0.000000   0.000000   0.000000
     4  C   -0.000000   0.000000   0.000000  -0.000000   0.000000   0.000000
     5  C    0.000000  -0.000000  -0.000000   0.000000   0.000000   0.000000
     6  C   -0.000000  -0.000000  -0.000000   0.000000  -0.000000  -0.000000
     7  C    0.000000  -0.000000   0.000000  -0.000000   0.000000  -0.000000
     8  C    0.000000   0.000000   0.000000  -0.000000   0.000000  -0.000000
     9  C   -0.000000  -0.000000  -0.000000   0.000000   0.000000   0.000000
    10  C    0.000000   0.000000  -0.000000   0.000000  -0.000000  -0.000000
    11  C    0.000000  -0.000000  -0.000000  -0.000000  -0.000000  -0.000000
    12  C    0.000000   0.000000  -0.000000  -0.000000   0.000000   0.000000
    13  C    0.000000   0.000000   0.000000  -0.000000   0.000000   0.000000
    14  C   -0.000000   0.000000   0.000000   0.000000   0.000000   0.000000
    15  C    0.000000   0.000000  -0.000000  -0.000000  -0.000000  -0.000000
    16  C    0.000000  -0.000000  -0.000000   0.000000  -0.000000  -0.000000
    17  H    0.000000  -0.000000  -0.000000  -0.000000  -0.000000   0.000000
    18  H    0.000000  -0.000000  -0.000000  -0.000000   0.000000  -0.000000
    19  H   -0.000000  -0.000000   0.000000   0.000000   0.000000   0.000000
    20  H   -0.000000  -0.000000  -0.000000   0.000000   0.000000  -0.000000
    21  H    0.000000   0.000000   0.000000  -0.000000  -0.000000  -0.000000
    22  H   -0.000000  -0.000000  -0.000000   0.000000  -0.000000   0.000000
    23  H    0.000000   0.000000   0.000000  -0.000000   0.000000  -0.000000
    24  H   -0.000000   0.000000   0.000000   0.000000  -0.000000   0.000000
    25  S    0.316244  -0.092110  -0.088287   0.305997  -0.003206   0.000110
    26  S   -0.092074   0.317633  -0.070497   0.008612   0.000023  -0.000002
    27  C   -0.000471   0.017234   0.006429   0.443544   0.419504   0.007015
    28  C   -0.000023  -0.001029  -0.049896  -0.048024  -0.037210  -0.042089
    29  C   -0.000614   0.013308  -0.030029  -0.054645   0.007352   0.411178
    30  C    0.011520  -0.088833   0.486684  -0.045453  -0.000573  -0.037837
    31  C   -0.089608   0.011576   0.000096  -0.000301  -0.000000   0.000000
    32  C    0.013358  -0.000615  -0.000018   0.000002   0.000000  -0.000000
    33  C   -0.001061  -0.000021   0.000027  -0.000002  -0.000000  -0.000000
    34  C    0.017369  -0.000514  -0.000510   0.000034   0.000000   0.000000
    35  C   -0.097200  -0.086316   0.003482  -0.000008   0.000001  -0.000000
    36  C    0.392894  -0.014515   0.021067   0.003429  -0.000009  -0.000000
    37  C    5.460493   0.363403  -0.014511  -0.086779  -0.000117   0.000016
    38  C    0.363403   5.456416   0.393334  -0.096417  -0.000334  -0.000470
    39  C   -0.014511   0.393334   4.947942   0.412386   0.007232   0.007539
    40  C   -0.086779  -0.096417   0.412386   5.390598  -0.047567   0.000277
    41  H   -0.000117  -0.000334   0.007232  -0.047567   0.566133  -0.000322
    42  H    0.000016  -0.000470   0.007539   0.000277  -0.000322   0.572158
    43  H    0.000094  -0.011924  -0.045400   0.008905   0.000064  -0.007630
    44  H   -0.012046   0.000092   0.000013  -0.000108   0.000000   0.000000
    45  H   -0.000469   0.000016  -0.000000  -0.000000  -0.000000   0.000000
    46  H   -0.000002   0.000010  -0.000000  -0.000000   0.000000   0.000000
    47  H   -0.000333  -0.000117  -0.000009   0.000001   0.000000  -0.000000
    48  H    0.000010  -0.000002  -0.000338   0.008904  -0.007787  -0.007477
              43         44         45         46         47         48
     1  S    0.000001   0.000000  -0.000000   0.000000   0.000000   0.000000
     2  S    0.000000   0.000000  -0.000000  -0.000000   0.000000   0.000000
     3  C   -0.000000  -0.000000   0.000000  -0.000000  -0.000000  -0.000000
     4  C   -0.000000  -0.000000   0.000000  -0.000000   0.000000  -0.000000
     5  C    0.000000   0.000000  -0.000000   0.000000   0.000000   0.000000
     6  C    0.000000   0.000000  -0.000000  -0.000000  -0.000000   0.000000
     7  C    0.000000   0.000000  -0.000000  -0.000000   0.000000   0.000000
     8  C    0.000000   0.000000   0.000000  -0.000000   0.000000   0.000000
     9  C   -0.000000  -0.000000   0.000000  -0.000000   0.000000  -0.000000
    10  C   -0.000000  -0.000000   0.000000  -0.000000   0.000000   0.000000
    11  C    0.000000   0.000000  -0.000000   0.000000  -0.000000   0.000000
    12  C   -0.000000   0.000000  -0.000000   0.000000  -0.000000  -0.000000
    13  C   -0.000000  -0.000000  -0.000000   0.000000  -0.000000  -0.000000
    14  C   -0.000000  -0.000000   0.000000  -0.000000   0.000000  -0.000000
    15  C   -0.000000  -0.000000   0.000000  -0.000000  -0.000000   0.000000
    16  C    0.000000   0.000000  -0.000000   0.000000  -0.000000   0.000000
    17  H    0.000000   0.000000  -0.000000  -0.000000   0.000000   0.000000
    18  H    0.000000   0.000000  -0.000000   0.000000  -0.000000   0.000000
    19  H   -0.000000  -0.000000   0.000000  -0.000000   0.000000  -0.000000
    20  H    0.000000  -0.000000   0.000000  -0.000000   0.000000  -0.000000
    21  H   -0.000000   0.000000  -0.000000   0.000000   0.000000   0.000000
    22  H   -0.000000  -0.000000   0.000000  -0.000000   0.000000  -0.000000
    23  H    0.000000   0.000000   0.000000  -0.000000  -0.000000  -0.000000
    24  H   -0.000000  -0.000000   0.000000   0.000000  -0.000000  -0.000000
    25  S   -0.000642   0.003292  -0.000002  -0.000003   0.000022  -0.000372
    26  S    0.003270  -0.000638   0.000109  -0.000370  -0.003166  -0.000003
    27  C   -0.000894  -0.000003   0.000000  -0.000000   0.000000  -0.041403
    28  C    0.007524   0.000000  -0.000000   0.000000  -0.000000   0.413855
    29  C   -0.039252  -0.000000  -0.000000   0.000000   0.000000  -0.042774
    30  C    0.419482   0.000000   0.000000   0.000000  -0.000000   0.007643
    31  C    0.000000   0.419717  -0.038205   0.007642  -0.000565   0.000000
    32  C   -0.000000  -0.039670   0.411163  -0.042880   0.007337   0.000000
    33  C    0.000000   0.007567  -0.041971   0.413857  -0.037167   0.000000
    34  C   -0.000003  -0.000915   0.007019  -0.041210   0.419330  -0.000000
    35  C   -0.000107   0.008954   0.000276   0.008881  -0.047118  -0.000000
    36  C    0.000012  -0.045780   0.007572  -0.000338   0.007242  -0.000000
    37  C    0.000094  -0.012046  -0.000469  -0.000002  -0.000333   0.000010
    38  C   -0.011924   0.000092   0.000016   0.000010  -0.000117  -0.000002
    39  C   -0.045400   0.000013  -0.000000  -0.000000  -0.000009  -0.000338
    40  C    0.008905  -0.000108  -0.000000  -0.000000   0.000001   0.008904
    41  H    0.000064   0.000000  -0.000000   0.000000   0.000000  -0.007787
    42  H   -0.007630   0.000000   0.000000   0.000000  -0.000000  -0.007477
    43  H    0.569771   0.000000   0.000000   0.000000   0.000000  -0.000307
    44  H    0.000000   0.572212  -0.007675  -0.000309   0.000064   0.000000
    45  H    0.000000  -0.007675   0.573017  -0.007484  -0.000321   0.000000
    46  H    0.000000  -0.000309  -0.007484   0.571707  -0.007753  -0.000000
    47  H    0.000000   0.000064  -0.000321  -0.007753   0.564638   0.000000
    48  H   -0.000307   0.000000   0.000000  -0.000000   0.000000   0.571917
 Mulliken charges:
               1
     1  S    0.287917
     2  S    0.282155
     3  C   -0.068710
     4  C   -0.082802
     5  C   -0.107503
     6  C   -0.045503
     7  C   -0.043636
     8  C   -0.106605
     9  C   -0.082893
    10  C   -0.069718
    11  C   -0.203385
    12  C    0.013265
    13  C   -0.179806
    14  C   -0.180092
    15  C    0.012316
    16  C   -0.202880
    17  H    0.097914
    18  H    0.096956
    19  H    0.095233
    20  H    0.097036
    21  H    0.097534
    22  H    0.098136
    23  H    0.096817
    24  H    0.098252
    25  S    0.282157
    26  S    0.287915
    27  C   -0.069718
    28  C   -0.082893
    29  C   -0.106605
    30  C   -0.043636
    31  C   -0.045503
    32  C   -0.107503
    33  C   -0.082802
    34  C   -0.068710
    35  C   -0.202879
    36  C    0.012316
    37  C   -0.180092
    38  C   -0.179806
    39  C    0.013266
    40  C   -0.203385
    41  H    0.096817
    42  H    0.097534
[...]
 Alpha  occ. eigenvalues --   -5.92739  -5.92739  -5.92267  -5.92267  -0.92302
 Alpha  occ. eigenvalues --   -0.88212  -0.84135  -0.82097  -0.77756  -0.77358
 Alpha  occ. eigenvalues --   -0.73954  -0.72123  -0.70016  -0.64604  -0.61534
 Alpha  occ. eigenvalues --   -0.59365  -0.58463  -0.56987  -0.51417  -0.50220
 Alpha  occ. eigenvalues --   -0.49097  -0.47492  -0.45651  -0.45496  -0.43992
 Alpha  occ. eigenvalues --   -0.43459  -0.43123  -0.40830  -0.40503  -0.39185
 Alpha  occ. eigenvalues --   -0.37284  -0.36629  -0.36204  -0.34755  -0.34568
 Alpha  occ. eigenvalues --   -0.34541  -0.32716  -0.28877  -0.28202  -0.24977
 Alpha  occ. eigenvalues --   -0.22873  -0.21142
 Alpha virt. eigenvalues --   -0.05634  -0.02355  -0.01598  -0.00538   0.00529
 Alpha virt. eigenvalues --    0.01814   0.04007   0.04132   0.04932   0.06274
 Alpha virt. eigenvalues --    0.07391   0.07898   0.08378   0.11281   0.12155
 Alpha virt. eigenvalues --    0.12961   0.13135   0.13213   0.14000   0.15844
 Alpha virt. eigenvalues --    0.16154   0.17706   0.19342   0.20644   0.23011
 Alpha virt. eigenvalues --    0.23156   0.24325   0.26898   0.27563   0.27686
 Alpha virt. eigenvalues --    0.28436   0.28987   0.29457   0.32879   0.34470
 Alpha virt. eigenvalues --    0.35828   0.37143   0.37441   0.38214   0.38784
 Alpha virt. eigenvalues --    0.38883   0.39778   0.40122   0.40604   0.41645
 Alpha virt. eigenvalues --    0.42095   0.42530   0.42664   0.44115   0.44468
 Alpha virt. eigenvalues --    0.44601   0.45384   0.45598   0.45806   0.45854
 Alpha virt. eigenvalues --    0.48376   0.49289   0.49469   0.50768   0.51611
 Alpha virt. eigenvalues --    0.53255   0.54814   0.56289   0.57147   0.58053
 Alpha virt. eigenvalues --    0.58699   0.59093   0.59418   0.59907   0.60359
 Alpha virt. eigenvalues --    0.60411   0.61634   0.62056   0.63624   0.63701
 Alpha virt. eigenvalues --    0.64647   0.66103   0.69589   0.70213   0.71869
 Alpha virt. eigenvalues --    0.72254   0.72781   0.73141   0.73662   0.74647
 Alpha virt. eigenvalues --    0.75797   0.76581   0.77499   0.78874   0.80150
 Alpha virt. eigenvalues --    0.80162   0.81842   0.83225   0.84213   0.84656
 Alpha virt. eigenvalues --    0.85760   0.85988   0.88325   0.88907   0.90285
 Alpha virt. eigenvalues --    0.90749   0.92271   0.93486   0.95972   0.96735
 Alpha virt. eigenvalues --    0.96752   0.98696   0.99409   1.00269   1.01682
 Alpha virt. eigenvalues --    1.02841   1.06057   1.06378   1.07541   1.08927
 Alpha virt. eigenvalues --    1.08966   1.09370   1.10726   1.11288   1.15743
 Alpha virt. eigenvalues --    1.18261   1.20259   1.21823   1.22319   1.24553
 Alpha virt. eigenvalues --    1.27961   1.28574   1.28963   1.34786   1.38700
 Alpha virt. eigenvalues --    1.40575   1.41488   1.42794   1.44201   1.44815
 Alpha virt. eigenvalues --    1.47146   1.47767   1.48942   1.52381   1.53863
 Alpha virt. eigenvalues --    1.53968   1.55929   1.56261   1.57906   1.58887
 Alpha virt. eigenvalues --    1.59642   1.60508   1.61021   1.61377   1.62167
 Alpha virt. eigenvalues --    1.63004   1.67111   1.69298   1.70368   1.71950
 Alpha virt. eigenvalues --    1.72872   1.73402   1.74565   1.75625   1.80208
 Alpha virt. eigenvalues --    1.80449   1.81565   1.82362   1.83269   1.83805
 Alpha virt. eigenvalues --    1.84229   1.86699   1.88786   1.89364   1.89440
 Alpha virt. eigenvalues --    1.89832   1.90823   1.90933   1.93661   1.93790
 Alpha virt. eigenvalues --    1.93885   1.96146   1.96192   1.98879   1.99490
 Alpha virt. eigenvalues --    2.00049   2.01111   2.02442   2.03435   2.06509
 Alpha virt. eigenvalues --    2.08045   2.10951   2.12006   2.14109   2.22431
 Alpha virt. eigenvalues --    2.25160   2.26306   2.26613   2.27653   2.32650
 Alpha virt. eigenvalues --    2.32800   2.32874   2.33279   2.34000   2.35759
 Alpha virt. eigenvalues --    2.37461   2.40468   2.47840   2.51992   2.53565
 Alpha virt. eigenvalues --    2.55488   2.56345   2.57262   2.59883   2.60227
 Alpha virt. eigenvalues --    2.61400   2.61610   2.62145   2.63709   2.64452
 Alpha virt. eigenvalues --    2.65123   2.65896   2.68911   2.68924   2.68999
 Alpha virt. eigenvalues --    2.70410   2.71688   2.73533   2.77368   2.79988
 Alpha virt. eigenvalues --    2.81351   2.81647   2.82207   2.83175   2.83583
 Alpha virt. eigenvalues --    2.87662   2.91705   2.92379   2.97020   3.03978
 Alpha virt. eigenvalues --    3.04299   3.07287   3.10371   3.15514   3.17190
 Alpha virt. eigenvalues --    3.23369   3.24266   3.29670   3.30263   3.31901
 Alpha virt. eigenvalues --    3.34398   3.38725   3.42628   3.44598   3.45777
 Alpha virt. eigenvalues --    3.50498   3.54556   3.55826   3.62654   3.75967
 Alpha virt. eigenvalues --    3.82196   3.98588   4.00437   4.01595   4.03790
 Alpha virt. eigenvalues --    4.11484   4.11840   4.19784   4.54946   4.79699
 Alpha virt. eigenvalues --    4.79826   7.81119   7.83950  17.19636  17.21067
 Alpha virt. eigenvalues --   17.43715  17.51189  17.52287  17.53379  23.35373
 Alpha virt. eigenvalues --   23.53812  23.68918  23.85655  23.85823  23.90157
 Alpha virt. eigenvalues --   23.92087  23.98132  24.01115  24.03741  24.07284
 Alpha virt. eigenvalues --   24.07407  24.14660  24.14770 188.92517 188.95387
          Condensed to atoms (all electrons):
              25         26         27         28         29         30
    25  S   15.370521   0.009509  -0.061459   0.005886  -0.000104   0.009383
    26  S    0.009509  15.370523  -0.000169  -0.000038   0.000327   0.002372
    27  C   -0.061459  -0.000169   4.861973   0.512594  -0.040618  -0.053511
    28  C    0.005886  -0.000038   0.512594   4.879645   0.492494  -0.051841
    29  C   -0.000104   0.000327  -0.040618   0.492494   4.878939   0.511515
    30  C    0.009383   0.002372  -0.053511  -0.051841   0.511515   4.875463
    31  C    0.002372   0.009384  -0.000001   0.000000  -0.000000  -0.000001
    32  C    0.000327  -0.000104   0.000000  -0.000000   0.000000  -0.000000
    33  C   -0.000038   0.005886  -0.000000   0.000000  -0.000000   0.000000
    34  C   -0.000169  -0.061459   0.000000  -0.000000   0.000000  -0.000001
    35  C    0.008663   0.306204   0.000033  -0.000002   0.000002  -0.000301
    36  C   -0.070641  -0.088260  -0.000510   0.000027  -0.000018   0.000095
    37  C    0.316757  -0.092103  -0.000488  -0.000022  -0.000613   0.011534
    38  C   -0.092103   0.316757   0.017255  -0.001042   0.013325  -0.089217
    39  C   -0.088260  -0.070641   0.006577  -0.049987  -0.029891   0.486116
    40  C    0.306204   0.008663   0.443291  -0.047947  -0.054765  -0.045309
    41  H   -0.003185   0.000023   0.419541  -0.037063   0.007347  -0.000568
    42  H    0.000110  -0.000002   0.007001  -0.041819   0.411184  -0.038061
    43  H   -0.000642   0.003289  -0.000908   0.007554  -0.039506   0.419764
    44  H    0.003289  -0.000642  -0.000003   0.000000  -0.000000   0.000000
    45  H   -0.000002   0.000110   0.000000  -0.000000  -0.000000   0.000000
    46  H   -0.000003  -0.000371  -0.000000   0.000000   0.000000   0.000000
    47  H    0.000023  -0.003185   0.000000  -0.000000   0.000000  -0.000000
    48  H   -0.000371  -0.000003  -0.041208   0.413909  -0.042677   0.007628
              31         32         33         34         35         36
    25  S    0.002372   0.000327  -0.000038  -0.000169   0.008663  -0.070641
    26  S    0.009384  -0.000104   0.005886  -0.061459   0.306204  -0.088260
    27  C   -0.000001   0.000000  -0.000000   0.000000   0.000033  -0.000510
    28  C    0.000000  -0.000000   0.000000  -0.000000  -0.000002   0.000027
    29  C   -0.000000   0.000000  -0.000000   0.000000   0.000002  -0.000018
    30  C   -0.000001  -0.000000   0.000000  -0.000001  -0.000301   0.000095
    31  C    4.875464   0.511514  -0.051841  -0.053511  -0.045308   0.486115
    32  C    0.511514   4.878940   0.492494  -0.040618  -0.054765  -0.029890
    33  C   -0.051841   0.492494   4.879646   0.512593  -0.047947  -0.049987
    34  C   -0.053511  -0.040618   0.512593   4.861974   0.443290   0.006578
    35  C   -0.045308  -0.054765  -0.047947   0.443290   5.390459   0.412309
    36  C    0.486115  -0.029890  -0.049987   0.006578   0.412309   4.949756
    37  C   -0.089217   0.013325  -0.001043   0.017255  -0.096660   0.392923
    38  C    0.011534  -0.000613  -0.000022  -0.000488  -0.086686  -0.014510
    39  C    0.000095  -0.000018   0.000027  -0.000510   0.003451   0.021082
    40  C   -0.000301   0.000002  -0.000002   0.000033  -0.000008   0.003451
    41  H   -0.000000   0.000000  -0.000000   0.000000   0.000001  -0.000009
    42  H    0.000000  -0.000000  -0.000000   0.000000  -0.000000  -0.000000
    43  H    0.000000  -0.000000   0.000000  -0.000003  -0.000107   0.000013
    44  H    0.419764  -0.039506   0.007554  -0.000908   0.008942  -0.045793
    45  H   -0.038061   0.411184  -0.041819   0.007001   0.000281   0.007544
    46  H    0.007628  -0.042677   0.413909  -0.041208   0.008882  -0.000338
    47  H   -0.000568   0.007347  -0.037063   0.419542  -0.047521   0.007228
    48  H    0.000000   0.000000   0.000000  -0.000000  -0.000000  -0.000000
              37         38         39         40         41         42
    25  S    0.316757  -0.092103  -0.088260   0.306204  -0.003185   0.000110
    26  S   -0.092103   0.316757  -0.070641   0.008663   0.000023  -0.000002
    27  C   -0.000488   0.017255   0.006577   0.443291   0.419541   0.007001
    28  C   -0.000022  -0.001042  -0.049987  -0.047947  -0.037063  -0.041819
    29  C   -0.000613   0.013325  -0.029891  -0.054765   0.007347   0.411184
    30  C    0.011534  -0.089217   0.486116  -0.045309  -0.000568  -0.038061
    31  C   -0.089217   0.011534   0.000095  -0.000301  -0.000000   0.000000
    32  C    0.013325  -0.000613  -0.000018   0.000002   0.000000  -0.000000
    33  C   -0.001043  -0.000022   0.000027  -0.000002  -0.000000  -0.000000
    34  C    0.017255  -0.000488  -0.000510   0.000033   0.000000   0.000000
    35  C   -0.096660  -0.086686   0.003451  -0.000008   0.000001  -0.000000
    36  C    0.392923  -0.014510   0.021082   0.003451  -0.000009  -0.000000
    37  C    5.458987   0.363451  -0.014510  -0.086686  -0.000118   0.000016
    38  C    0.363451   5.458985   0.392924  -0.096660  -0.000333  -0.000469
    39  C   -0.014510   0.392924   4.949754   0.412309   0.007227   0.007544
    40  C   -0.086686  -0.096660   0.412309   5.390459  -0.047521   0.000281
    41  H   -0.000118  -0.000333   0.007227  -0.047521   0.565102  -0.000321
    42  H    0.000016  -0.000469   0.007544   0.000281  -0.000321   0.571823
    43  H    0.000092  -0.012023  -0.045793   0.008942   0.000064  -0.007644
    44  H   -0.012023   0.000092   0.000013  -0.000107   0.000000   0.000000
    45  H   -0.000469   0.000016  -0.000000  -0.000000  -0.000000   0.000000
    46  H   -0.000002   0.000010  -0.000000  -0.000000   0.000000   0.000000
    47  H   -0.000333  -0.000118  -0.000009   0.000001   0.000000  -0.000000
    48  H    0.000010  -0.000002  -0.000338   0.008882  -0.007754  -0.007454
              43         44         45         46         47         48
    25  S   -0.000642   0.003289  -0.000002  -0.000003   0.000023  -0.000371
    26  S    0.003289  -0.000642   0.000110  -0.000371  -0.003185  -0.000003
    27  C   -0.000908  -0.000003   0.000000  -0.000000   0.000000  -0.041208
    28  C    0.007554   0.000000  -0.000000   0.000000  -0.000000   0.413909
    29  C   -0.039506  -0.000000  -0.000000   0.000000   0.000000  -0.042677
    30  C    0.419764   0.000000   0.000000   0.000000  -0.000000   0.007628
    31  C    0.000000   0.419764  -0.038061   0.007628  -0.000568   0.000000
    32  C   -0.000000  -0.039506   0.411184  -0.042677   0.007347   0.000000
    33  C    0.000000   0.007554  -0.041819   0.413909  -0.037063   0.000000
    34  C   -0.000003  -0.000908   0.007001  -0.041208   0.419542  -0.000000
    35  C   -0.000107   0.008942   0.000281   0.008882  -0.047521  -0.000000
    36  C    0.000013  -0.045793   0.007544  -0.000338   0.007228  -0.000000
    37  C    0.000092  -0.012023  -0.000469  -0.000002  -0.000333   0.000010
    38  C   -0.012023   0.000092   0.000016   0.000010  -0.000118  -0.000002
    39  C   -0.045793   0.000013  -0.000000  -0.000000  -0.000009  -0.000338
    40  C    0.008942  -0.000107  -0.000000  -0.000000   0.000001   0.008882
    41  H    0.000064   0.000000  -0.000000   0.000000   0.000000  -0.007754
    42  H   -0.007644   0.000000   0.000000   0.000000  -0.000000  -0.007454
    43  H    0.571389   0.000000   0.000000   0.000000   0.000000  -0.000308
    44  H    0.000000   0.571389  -0.007644  -0.000308   0.000064   0.000000
    45  H    0.000000  -0.007644   0.571823  -0.007454  -0.000321   0.000000
    46  H    0.000000  -0.000308  -0.007454   0.570652  -0.007754  -0.000000
    47  H    0.000000   0.000064  -0.000321  -0.007754   0.565101   0.000000
    48  H   -0.000308   0.000000   0.000000  -0.000000   0.000000   0.570652
 Mulliken charges:
               1
     1  S    0.000000
     2  S    0.000000
     3  C    0.000000
     4  C    0.000000
     5  C    0.000000
     6  C    0.000000
     7  C    0.000000
     8  C    0.000000
     9  C    0.000000
    10  C    0.000000
    11  C    0.000000
    12  C    0.000000
    13  C    0.000000
    14  C    0.000000
    15  C    0.000000
    16  C    0.000000
    17  H    0.000000
    18  H    0.000000
    19  H    0.000000
    20  H    0.000000
    21  H    0.000000
    22  H    0.000000
    23  H    0.000000
    24  H    0.000000
    25  S    0.283934
    26  S    0.283932
    27  C   -0.069392
    28  C   -0.082346
    29  C   -0.106941
    30  C   -0.045060
    31  C   -0.045060
    32  C   -0.106942
    33  C   -0.082346
    34  C   -0.069391
    35  C   -0.203209
    36  C    0.012838
    37  C   -0.180062
    38  C   -0.180063
    39  C    0.012839
    40  C   -0.203209
    41  H    0.097566
    42  H    0.097812
    43  H    0.095826
    44  H    0.095826
    45  H    0.097812
    46  H    0.099035
    47  H    0.097566
    48  H    0.099035
 Sum of Mulliken charges =  -0.00000
 Mulliken charges with hydrogens summed into heavy atoms:
               1
     1  S    0.000000
     2  S    0.000000
     3  C    0.000000
     4  C    0.000000
     5  C    0.000000
     6  C    0.000000
     7  C    0.000000
     8  C    0.000000
     9  C    0.000000
    10  C    0.000000
    11  C    0.000000
    12  C    0.000000
    13  C    0.000000
    14  C    0.000000
    15  C    0.000000
    16  C    0.000000
    25  S    0.283934
    26  S    0.283932
    27  C    0.028175
    28  C    0.016688
    29  C   -0.009129
    30  C    0.050766
    31  C    0.050766
    32  C   -0.009129
    33  C    0.016688
    34  C    0.028175
    35  C   -0.203209
    36  C    0.012838
    37  C   -0.180062
    38  C   -0.180063
    39  C    0.012839
    40  C   -0.203209
         Mulliken charges condensed to fragments:
      1      0.000000
      2     -0.000000
 Electronic spatial extent (au):  <R**2>=          11567.4109
 Charge=             -0.0000 electrons
 Dipole moment (field-independent basis, Debye):
    X=             -0.0000    Y=              0.0000    Z=             -0.0000  Tot=              0.0000
 Quadrupole moment (field-independent basis, Debye-Ang):
   XX=           -108.9353   YY=            -88.7594   ZZ=           -102.5814
   XY=             -1.5684   XZ=              7.0683   YZ=              0.3904
 Traceless Quadrupole moment (field-independent basis, Debye-Ang):
   XX=             -8.8433   YY=             11.3327   ZZ=             -2.4894
   XY=             -1.5684   XZ=              7.0683   YZ=              0.3904
 Octapole moment (field-independent basis, Debye-Ang**2):
  XXX=           1312.9050  YYY=             34.1601  ZZZ=            -65.1316  XYY=            356.9829
  XXY=             26.5763  XXZ=            -79.8472  XZZ=            415.1009  YZZ=             13.3250
  YYZ=            -18.8854  XYZ=             -2.8072
 Hexadecapole moment (field-independent basis, Debye-Ang**3):
 XXXX=         -11056.9708 YYYY=          -4244.9301 ZZZZ=           -947.3264 XXXY=            -73.9286
 XXXZ=            365.5499 YYYX=            -17.3723 YYYZ=             34.7771 ZZZX=             38.7959
 ZZZY=              1.4342 XXYY=          -2346.7005 XXZZ=          -1902.1966 YYZZ=           -903.7196
 XXYZ=              1.9599 YYXZ=             84.8368 ZZXY=             -9.4033
 N-N= 1.192162449365D+03 E-N=-5.527361779905D+03  KE= 1.331399870366D+03
 CPIOFr:  IOpCl= 0 IRwI=-1 IRwCP=  731 ICalc=  4 LCPTot=      762852 Len1MO=     1998050 IndFrg=    10753102
 CPIOFr:  IOpCl= 0 IRwI=-2 IRwCP=  731 ICalc=  0 LCPTot=      762852 Len1MO=     1998050 IndFrg=     2760902
 Counterpoise corrected energy =   -2669.795202409937
                   BSSE energy =       0.000003575038
              sum of fragments =   -2669.794630473700
           complexation energy =      -0.36 kcal/mole (raw)
           complexation energy =      -0.36 kcal/mole (corrected)
 1\1\GINC-CMDELL86\SP\RB3LYP\6-311G(d,p)\C28H16S4\OHNO\14-Jul-2021\0\\#
 b3lyp/6-311G** EmpiricalDispersion=GD3 counterpoise=2\\BTBT dimer b3ly
 p/6-311G**\\0,1\S,0,1.6203193263,0.9333401805,-0.9655543418\S,0,-1.620
 3215046,-0.9333388826,0.9655526073\C,0,0.7607010875,0.432046614,-3.596
 4890673\C,0,-0.1990145233,-0.0970811798,-4.456605144\C,0,-1.3358730484
 ,-0.7617409166,-3.9518894629\C,0,-1.5484008838,-0.8661903564,-2.581713
 2069\C,0,1.5483981093,0.866196593,2.581713372\C,0,1.3358706776,0.76174
 32744,3.9518892671\C,0,0.19901583,0.0970776341,4.4566055645\C,0,-0.760
 6973501,-0.4320550248,3.5964887592\C,0,-0.5418750743,-0.3467155574,2.2
 136722139\C,0,0.5874862401,0.3462927079,1.6917199634\C,0,0.5677107081,
 0.3035896045,0.2629304608\C,0,-0.5677107915,-0.3035871419,-0.262930279
 8\C,0,-0.5874867399,-0.3462921765,-1.6917195198\C,0,0.5418798052,0.346
 711325,-2.2136710574\H,0,1.6351619757,0.9441051055,-3.9892419249\H,0,-
 2.069015815,-1.1685664408,-4.6425298944\H,0,-2.4232632237,-1.382224776
 ,-2.1937042881\H,0,2.4232592385,1.3822352091,2.193705084\H,0,2.0690081
 682,1.1685767873,4.6425301772\H,0,0.0489377359,0.0282464127,5.53031334
 02\H,0,-1.6351576368,-0.9441151195,3.9892396112\H,0,-0.0489323111,-0.0
 282538749,-5.5303122329\S,0,1.6203193263,8.9833401805,-0.9655543418\S,
 0,-1.6203215046,7.1166611174,0.9655526073\C,0,0.7607010875,8.482046614
 ,-3.5964890673\C,0,-0.1990145233,7.9529188202,-4.456605144\C,0,-1.3358
 730484,7.2882590834,-3.9518894629\C,0,-1.5484008838,7.1838096436,-2.58
 17132069\C,0,1.5483981093,8.916196593,2.581713372\C,0,1.3358706776,8.8
 117432744,3.9518892671\C,0,0.19901583,8.1470776341,4.4566055645\C,0,-0
 .7606973501,7.6179449752,3.5964887592\C,0,-0.5418750743,7.7032844426,2
 .2136722139\C,0,0.5874862401,8.3962927079,1.6917199634\C,0,0.567710708
 1,8.3535896045,0.2629304608\C,0,-0.5677107915,7.7464128581,-0.26293027
 98\C,0,-0.5874867399,7.7037078235,-1.6917195198\C,0,0.5418798052,8.396
 711325,-2.2136710574\H,0,1.6351619757,8.9941051055,-3.9892419249\H,0,-
 2.069015815,6.8814335592,-4.6425298944\H,0,-2.4232632237,6.667775224,-
 2.1937042881\H,0,2.4232592385,9.4322352091,2.193705084\H,0,2.069008168
 2,9.2185767873,4.6425301772\H,0,0.0489377359,8.0782464127,5.5303133402
 \H,0,-1.6351576368,7.1058848805,3.9892396112\H,0,-0.0489323111,8.02174
 61251,-5.5303122329\\Version=ES64L-G16RevA.03\State=1-A\HF=-1334.89731
 52\RMSD=8.835e-09\Dipole=0.0000025,0.0000074,0.0000047\Quadrupole=-2.0
 535783,-14.7654565,16.8190349,9.5743939,1.1639846,0.6084162\PG=C01 [X(
 C28H16S4)]\\@


 TOWERING GENIUS DISDAINS A BEATEN PATH.  IT SEEKS 
 REGIONS HITHERTO UNEXPLORED.

                                -- ABRAHAM LINCOLN
 Job cpu time:       0 days  1 hours 53 minutes  5.9 seconds.
 Elapsed time:       0 days  0 hours  2 minutes 52.5 seconds.
 File lengths (MBytes):  RWF=    395 Int=      0 D2E=      0 Chk=    113 Scr=      2
 Normal termination of Gaussian 16 at Wed Jul 14 11:52:29 2021.
