 Entering Gaussian System, Link 0=g16
 Initial command:
 /home/g03/g16/l1.exe "/home/scr/21098/Gau-199498.inp" -scrdir="/home/scr/21098/"
 Entering Link 1 = /home/g03/g16/l1.exe PID=    199499.
  
 Copyright (c) 1988,1990,1992,1993,1995,1998,2003,2009,2016,
            Gaussian, Inc.  All Rights Reserved.
  
 This is part of the Gaussian(R) 16 program.  It is based on
 the Gaussian(R) 09 system (copyright 2009, Gaussian, Inc.),
 the Gaussian(R) 03 system (copyright 2003, Gaussian, Inc.),
 the Gaussian(R) 98 system (copyright 1998, Gaussian, Inc.),
 the Gaussian(R) 94 system (copyright 1995, Gaussian, Inc.),
 the Gaussian 92(TM) system (copyright 1992, Gaussian, Inc.),
 the Gaussian 90(TM) system (copyright 1990, Gaussian, Inc.),
 the Gaussian 88(TM) system (copyright 1988, Gaussian, Inc.),
 the Gaussian 86(TM) system (copyright 1986, Carnegie Mellon
 University), and the Gaussian 82(TM) system (copyright 1983,
 Carnegie Mellon University). Gaussian is a federally registered
 trademark of Gaussian, Inc.
  
 This software contains proprietary and confidential information,
 including trade secrets, belonging to Gaussian, Inc.
  
 This software is provided under written license and may be
 used, copied, transmitted, or stored only in accord with that
 written license.
  
 The following legend is applicable only to US Government
 contracts under FAR:
  
                    RESTRICTED RIGHTS LEGEND
  
 Use, reproduction and disclosure by the US Government is
 subject to restrictions as set forth in subparagraphs (a)
 and (c) of the Commercial Computer Software - Restricted
 Rights clause in FAR 52.227-19.
  
 Gaussian, Inc.
 340 Quinnipiac St., Bldg. 40, Wallingford CT 06492
  
  
 ---------------------------------------------------------------
 Warning -- This program may not be used in any manner that
 competes with the business of Gaussian, Inc. or will provide
 assistance to any competitor of Gaussian, Inc.  The licensee
 of this program is prohibited from giving any competitor of
 Gaussian, Inc. access to this program.  By using this program,
 the user acknowledges that Gaussian, Inc. is engaged in the
 business of creating and licensing software in the field of
 computational chemistry and represents and warrants to the
 licensee that it is not a competitor of Gaussian, Inc. and that
 it will not use this program in any manner prohibited above.
 ---------------------------------------------------------------
  

 Cite this work as:
 Gaussian 16, Revision A.03,
 M. J. Frisch, G. W. Trucks, H. B. Schlegel, G. E. Scuseria, 
 M. A. Robb, J. R. Cheeseman, G. Scalmani, V. Barone, 
 G. A. Petersson, H. Nakatsuji, X. Li, M. Caricato, A. V. Marenich, 
 J. Bloino, B. G. Janesko, R. Gomperts, B. Mennucci, H. P. Hratchian, 
 J. V. Ortiz, A. F. Izmaylov, J. L. Sonnenberg, D. Williams-Young, 
 F. Ding, F. Lipparini, F. Egidi, J. Goings, B. Peng, A. Petrone, 
 T. Henderson, D. Ranasinghe, V. G. Zakrzewski, J. Gao, N. Rega, 
 G. Zheng, W. Liang, M. Hada, M. Ehara, K. Toyota, R. Fukuda, 
 J. Hasegawa, M. Ishida, T. Nakajima, Y. Honda, O. Kitao, H. Nakai, 
 T. Vreven, K. Throssell, J. A. Montgomery, Jr., J. E. Peralta, 
 F. Ogliaro, M. J. Bearpark, J. J. Heyd, E. N. Brothers, K. N. Kudin, 
 V. N. Staroverov, T. A. Keith, R. Kobayashi, J. Normand, 
 K. Raghavachari, A. P. Rendell, J. C. Burant, S. S. Iyengar, 
 J. Tomasi, M. Cossi, J. M. Millam, M. Klene, C. Adamo, R. Cammi, 
 J. W. Ochterski, R. L. Martin, K. Morokuma, O. Farkas, 
 J. B. Foresman, and D. J. Fox, Gaussian, Inc., Wallingford CT, 2016.
 
 ******************************************
 Gaussian 16:  ES64L-G16RevA.03 25-Dec-2016
                14-Jul-2021 
 ******************************************
 %NProcShared=40
 Will use up to   40 processors via shared memory.
 %Mem=15GB
 ------------------------------------------------------
 #b3lyp/6-311G** EmpiricalDispersion=GD3 counterpoise=2
 ------------------------------------------------------
 1/38=1,62=2,172=1/1;
 2/12=2,17=6,18=5,40=1/2;
 1/38=1,53=2,62=2,63=1/22;
 3/5=4,6=6,7=101,11=2,25=1,30=1,74=-5,124=31/1,2,3;
 4//1;
 5/5=2,38=5/2;
 6/7=2,8=2,9=2,10=2,28=1/1;
 1/53=2,62=2,63=1/22;
 3/5=7,6=11,7=101,11=2,25=1,30=1,74=-5,82=7,124=31/1,2,3;
 4//1;
 5/5=2,38=5/2;
 6/7=2,8=2,9=2,10=2,28=1/1;
 1/53=2,62=2,63=1/22(-4);
 99/5=1,9=1/99;
 -------------------------
 BTBT dimer b3lyp/6-311G**
 -------------------------
 Symbolic Z-matrix:
 Charge =  0 Multiplicity = 1 in supermolecule
 Charge =  0 Multiplicity = 1 in fragment      1.
 Charge =  0 Multiplicity = 1 in fragment      2.
 S                     1.62032   0.93334  -0.96555    
 S                    -1.62032  -0.93334   0.96555    
 C                     0.7607    0.43205  -3.59649    
 C                    -0.19901  -0.09708  -4.45661    
 C                    -1.33587  -0.76174  -3.95189    
 C                    -1.5484   -0.86619  -2.58171    
 C                     1.5484    0.8662    2.58171    
 C                     1.33587   0.76174   3.95189    
 C                     0.19902   0.09708   4.45661    
 C                    -0.7607   -0.43206   3.59649    
 C                    -0.54188  -0.34672   2.21367    
 C                     0.58749   0.34629   1.69172    
 C                     0.56771   0.30359   0.26293    
 C                    -0.56771  -0.30359  -0.26293    
 C                    -0.58749  -0.34629  -1.69172    
 C                     0.54188   0.34671  -2.21367    
 H                     1.63516   0.94411  -3.98924    
 H                    -2.06902  -1.16857  -4.64253    
 H                    -2.42326  -1.38222  -2.1937     
 H                     2.42326   1.38224   2.19371    
 H                     2.06901   1.16858   4.64253    
 H                     0.04894   0.02825   5.53031    
 H                    -1.63516  -0.94412   3.98924    
 H                    -0.04893  -0.02825  -5.53031    
 S                    -4.54532  -3.10166  -0.96555    
 S                    -1.30468  -4.96834   0.96555    
 C                    -3.6857   -3.60295  -3.59649    
 C                    -2.72599  -4.13208  -4.45661    
 C                    -1.58913  -4.79674  -3.95189    
 C                    -1.3766   -4.90119  -2.58171    
 C                    -4.4734   -3.1688    2.58171    
 C                    -4.26087  -3.27326   3.95189    
 C                    -3.12402  -3.93792   4.45661    
 C                    -2.1643   -4.46706   3.59649    
 C                    -2.38312  -4.38172   2.21367    
 C                    -3.51249  -3.68871   1.69172    
 C                    -3.49271  -3.73141   0.26293    
 C                    -2.35729  -4.33859  -0.26293    
 C                    -2.33751  -4.38129  -1.69172    
 C                    -3.46688  -3.68829  -2.21367    
 H                    -4.56016  -3.09089  -3.98924    
 H                    -0.85598  -5.20357  -4.64253    
 H                    -0.50174  -5.41722  -2.1937     
 H                    -5.34826  -2.65276   2.19371    
 H                    -4.99401  -2.86642   4.64253    
 H                    -2.97394  -4.00675   5.53031    
 H                    -1.28984  -4.97912   3.98924    
 H                    -2.87607  -4.06325  -5.53031    
 
                          Input orientation:                          
 ---------------------------------------------------------------------
 Center     Atomic      Atomic             Coordinates (Angstroms)
 Number     Number       Type             X           Y           Z
 ---------------------------------------------------------------------
      1         16           0        1.620319    0.933340   -0.965554
      2         16           0       -1.620322   -0.933339    0.965553
      3          6           0        0.760701    0.432047   -3.596489
      4          6           0       -0.199015   -0.097081   -4.456605
      5          6           0       -1.335873   -0.761741   -3.951889
      6          6           0       -1.548401   -0.866190   -2.581713
      7          6           0        1.548398    0.866197    2.581713
      8          6           0        1.335871    0.761743    3.951889
      9          6           0        0.199016    0.097078    4.456606
     10          6           0       -0.760697   -0.432055    3.596489
     11          6           0       -0.541875   -0.346716    2.213672
     12          6           0        0.587486    0.346293    1.691720
     13          6           0        0.567711    0.303590    0.262930
     14          6           0       -0.567711   -0.303587   -0.262930
     15          6           0       -0.587487   -0.346292   -1.691720
     16          6           0        0.541880    0.346711   -2.213671
     17          1           0        1.635162    0.944105   -3.989242
     18          1           0       -2.069016   -1.168566   -4.642530
     19          1           0       -2.423263   -1.382225   -2.193704
     20          1           0        2.423259    1.382235    2.193705
     21          1           0        2.069008    1.168577    4.642530
     22          1           0        0.048938    0.028246    5.530313
     23          1           0       -1.635158   -0.944115    3.989240
     24          1           0       -0.048932   -0.028254   -5.530312
     25         16           0       -4.545319   -3.101660   -0.965554
     26         16           0       -1.304678   -4.968339    0.965553
     27          6           0       -3.685701   -3.602953   -3.596489
     28          6           0       -2.725985   -4.132081   -4.456605
     29          6           0       -1.589127   -4.796741   -3.951889
     30          6           0       -1.376599   -4.901190   -2.581713
     31          6           0       -4.473398   -3.168803    2.581713
     32          6           0       -4.260871   -3.273257    3.951889
     33          6           0       -3.124016   -3.937922    4.456606
     34          6           0       -2.164303   -4.467055    3.596489
     35          6           0       -2.383125   -4.381716    2.213672
     36          6           0       -3.512486   -3.688707    1.691720
     37          6           0       -3.492711   -3.731410    0.262930
     38          6           0       -2.357289   -4.338587   -0.262930
     39          6           0       -2.337513   -4.381292   -1.691720
     40          6           0       -3.466880   -3.688289   -2.213671
     41          1           0       -4.560162   -3.090895   -3.989242
     42          1           0       -0.855984   -5.203566   -4.642530
     43          1           0       -0.501737   -5.417225   -2.193704
     44          1           0       -5.348259   -2.652765    2.193705
     45          1           0       -4.994008   -2.866423    4.642530
     46          1           0       -2.973938   -4.006754    5.530313
     47          1           0       -1.289842   -4.979115    3.989240
     48          1           0       -2.876068   -4.063254   -5.530312
 ---------------------------------------------------------------------
                    Distance matrix (angstroms):
                    1          2          3          4          5
     1  S    0.000000
     2  S    4.208969   0.000000
     3  C    2.812838   5.324075   0.000000
     4  C    4.069297   5.667383   1.393137   0.000000
     5  C    4.531067   4.928650   2.438660   1.410304   0.000000
     6  C    3.986360   3.548630   2.836748   2.434665   1.390489
     7  C    3.548632   3.986363   6.243327   7.315687   7.325105
     8  C    4.928652   4.531069   7.577436   8.590473   8.481093
     9  C    5.667385   4.069299   8.079606   8.924206   8.590474
    10  C    5.324076   2.812839   7.402719   8.079605   7.577436
    11  C    4.052297   1.750707   6.005094   6.683747   6.230315
    12  C    2.910752   2.653147   5.291740   6.214263   6.064435
    13  C    1.736014   2.609819   3.866376   4.798169   4.745868
    14  C    2.609817   1.736015   3.663120   4.214913   3.795840
    15  C    2.653146   2.910750   2.459994   2.803143   2.416826
    16  C    1.750703   4.052296   1.402623   2.403462   2.788553
    17  H    3.023743   6.218759   1.086803   2.160255   3.426128
    18  H    5.616881   5.630919   3.415181   2.163228   1.086273
    19  H    4.818792   3.290459   3.923903   3.423390   2.158387
    20  H    3.290462   4.818795   6.098632   7.300091   7.516385
    21  H    5.630921   5.616882   8.374699   9.462562   9.443696
    22  H    6.744237   4.954605   9.163416   9.990782   9.615298
    23  H    6.218758   3.023743   8.073242   8.608848   7.948859
    24  H    4.954602   6.744235   2.146405   1.086328   2.164633
    25  S    7.368604   4.121456   6.896575   6.332874   4.969302
    26  S    6.864008   4.047327   7.364929   7.372343   6.471296
    27  C    7.460136   5.674932   6.004308   5.018757   3.704118
    28  C    7.532350   6.391732   5.807585   4.760967   3.680536
    29  C    7.214747   6.253646   5.743537   4.926860   4.042940
    30  C    6.755386   5.327883   5.834487   5.289744   4.360514
    31  C    8.157456   3.968542   8.861834   8.788843   7.637145
    32  C    8.744433   4.622329   9.794053   9.863546   8.793921
    33  C    8.696996   4.845211   9.951884  10.136716   9.164517
    34  C    8.018720   4.439019   9.181273   9.370771   8.449477
    35  C    7.374609   3.745794   8.173978   8.223201   7.226002
    36  C    7.400684   3.420477   7.950214   7.853711   6.719755
    37  C    7.029378   3.439291   7.093730   6.806673   5.588881
    38  C    6.641406   3.694321   6.602532   6.343140   5.238849
    39  C    6.666114   4.411784   6.032853   5.529216   4.383241
    40  C    6.985474   4.594234   6.063150   5.348501   4.015878
    41  H    7.970916   6.152048   6.393509   5.310457   3.977737
    42  H    7.570591   7.090109   5.955502   5.151929   4.520740
    43  H    6.807433   5.597979   6.146180   5.789325   5.045843
    44  H    8.449980   4.285126   8.964475   8.790499   7.579152
    45  H    9.467742   5.351518  10.577241  10.651548   9.574742
    46  H    9.365256   5.667027  10.814296  11.078099  10.155074
    47  H    8.244765   5.061641   9.540895   9.816132   8.991657
    48  H    8.125298   7.319121   6.097006   4.904079   3.970341
                    6          7          8          9         10
     6  C    0.000000
     7  C    6.265166   0.000000
     8  C    7.325104   1.390489   0.000000
     9  C    7.315687   2.434666   1.410304   0.000000
    10  C    6.243327   2.836750   2.438660   1.393137   0.000000
    11  C    4.927339   2.444556   2.788550   2.403460   1.402622
    12  C    4.928931   1.409163   2.416825   2.803143   2.459994
    13  C    3.733405   2.579734   3.795839   4.214913   3.663121
    14  C    2.579734   3.733404   4.745867   4.798168   3.866376
    15  C    1.409162   4.928931   6.064435   6.214263   5.291739
    16  C    2.444557   4.927338   6.230314   6.683746   6.005093
    17  H    3.923440   6.571990   7.948861   8.608851   8.073244
    18  H    2.146960   8.331605   9.443696   9.462562   8.374698
    19  H    1.087302   6.605612   7.516383   7.300089   6.098630
    20  H    6.605613   1.087303   2.158387   3.423391   3.923905
    21  H    8.331604   2.146959   1.086273   2.163227   3.415181
    22  H    8.316038   3.412445   2.164633   1.086328   2.146407
    23  H    6.571988   3.923441   3.426129   2.160256   1.086802
    24  H    3.412445   8.316037   9.615296   9.990781   9.163414
    25  S    4.073182   8.090759   8.584610   7.882922   6.500953
    26  S    5.428639   6.692819   6.980297   6.333008   5.272154
    27  C    3.617692   9.248745  10.062046   9.676445   8.387441
    28  C    3.945626   9.632812  10.542816  10.290128   9.077713
    29  C    4.162724   9.197874  10.095646   9.891901   8.758698
    30  C    4.038656   8.275224   9.061693   8.775145   7.650012
    31  C    6.365423   7.248673   7.146620   6.001054   4.722680
    32  C    7.472578   7.263612   6.899619   5.612885   4.522162
    33  C    7.839390   6.958896   6.498629   5.227214   4.314647
    34  C    7.177447   6.577043   6.302210   5.211179   4.272158
    35  C    6.004282   6.567565   6.580843   5.635405   4.488237
    36  C    5.485113   6.866716   6.958552   5.979298   4.669718
    37  C    4.481275   7.206075   7.557251   6.772967   5.427914
    38  C    4.253069   7.101842   7.577434   6.963034   5.718847
    39  C    3.710893   7.803760   8.473186   8.018209   6.785865
    40  C    3.432238   8.300124   8.993516   8.500611   7.189189
    41  H    4.000144   9.805638  10.614499  10.205160   8.890932
    42  H    4.851725   9.737185  10.688928  10.583200   9.521440
    43  H    4.685933   8.154082   8.906445   8.667480   7.644953
    44  H    6.358883   7.752259   7.708934   6.592011   5.286310
    45  H    8.250020   7.809129   7.328570   5.982007   4.994124
    46  H    8.814776   7.272648   6.618492   5.297350   4.627805
    47  H    7.756315   6.648640   6.312941   5.310637   4.594562
    48  H    4.547323  10.472838  11.442603  11.247356  10.047830
                   11         12         13         14         15
    11  C    0.000000
    12  C    1.424132   0.000000
    13  C    2.336551   1.429564   0.000000
    14  C    2.477113   2.361669   1.390818   0.000000
    15  C    3.905658   3.647999   2.361670   1.429564   0.000000
    16  C    4.610503   3.905657   2.477112   2.336551   1.424133
    17  H    6.699392   5.807610   4.430653   4.504973   3.447304
    18  H    7.072136   7.033813   5.760478   4.709883   3.402697
    19  H    4.902741   5.210461   4.221724   2.886940   2.166846
    20  H    3.432447   2.166848   2.886941   4.221724   5.210463
    21  H    3.874555   3.402696   4.709882   5.760477   7.033812
    22  H    3.389656   3.889214   5.300025   5.835413   7.259688
    23  H    2.169053   3.447303   4.504972   4.430651   5.807607
    24  H    7.766190   7.259688   5.835412   5.300024   3.889214
    25  S    5.807303   6.730169   6.264820   4.913681   4.876864
    26  S    4.847584   5.687962   5.638506   4.879775   5.379477
    27  C    7.365100   7.862686   6.946057   5.632077   4.881897
    28  C    7.974455   8.296796   7.266198   6.074737   5.152666
    29  C    7.675520   7.939696   6.959169   5.902554   5.090987
    30  C    6.666013   7.046697   6.241961   5.212390   4.707641
    31  C    4.853505   6.225796   6.545765   5.617460   6.428772
    32  C    5.041525   6.458798   7.051060   6.342166   7.342424
    33  C    4.959331   6.306690   7.014712   6.482060   7.558815
    34  C    4.639143   5.862491   6.429274   5.897346   6.887103
    35  C    4.435248   5.608122   5.870682   5.104941   5.895850
    36  C    4.501763   5.752478   5.884546   4.894017   5.583460
    37  C    4.895813   5.942820   5.724356   4.536753   4.870319
    38  C    5.036301   5.868599   5.511983   4.414048   4.594786
    39  C    5.895270   6.507945   5.848855   4.669188   4.398161
    40  C    6.270816   6.925880   6.192461   4.864851   4.442103
    41  H    7.883736   8.401540   7.476535   6.131407   5.347299
    42  H    8.408042   8.544429   7.511273   6.578282   5.689682
    43  H    6.718381   7.035699   6.317158   5.466400   5.096440
    44  H    5.331003   6.669289   6.889602   5.865777   6.563634
    45  H    5.663017   7.083919   7.756455   7.086874   8.117340
    46  H    5.505535   6.809372   7.672526   7.284576   8.441083
    47  H    5.017093   6.096140   6.726281   6.361052   7.364078
    48  H    8.901146   9.143197   8.030603   6.870875   5.812762
                   16         17         18         19         20
    16  C    0.000000
    17  H    2.169054   0.000000
    18  H    3.874558   4.314058   0.000000
    19  H    3.432447   5.010647   2.483523   0.000000
    20  H    4.902740   6.248351   8.568619   7.097914   0.000000
    21  H    7.072134   8.645583  10.430619   8.568617   2.483523
    22  H    7.766190   9.694165  10.459676   8.231747   4.313194
    23  H    6.699390   8.827034   8.645580   6.248347   5.010648
    24  H    3.389656   2.481240   2.483789   4.313193   8.231747
    25  S    6.271256   7.981807   4.836226   2.994650   8.868333
    26  S    6.462739   8.255280   6.817116   4.908396   7.465633
    27  C    5.948485   7.010106   3.103887   2.914308   9.782528
    28  C    5.980742   6.708629   3.041151   3.574083  10.057288
    29  C    5.832469   6.584432   3.724369   3.930130   9.594130
    30  C    5.599686   6.724531   4.319593   3.691771   8.759280
    31  C    7.778661   9.869548   7.872210   5.495410   8.272024
    32  C    8.613055  10.752251   9.115810   6.687385   8.333211
    33  C    8.734384  10.854322   9.569568   7.158859   8.012307
    34  C    8.015842  10.062798   8.875277   6.565788   7.564901
    35  C    7.107393   9.109728   7.578291   5.331372   7.504989
    36  C    6.926367   8.957375   6.968317   4.647880   7.823012
    37  C    6.248404   8.138581   5.714772   3.563347   8.054562
    38  C    5.844877   7.598151   5.414150   3.531617   7.849618
    39  C    5.560338   7.029980   4.370467   3.041997   8.424947
    40  C    5.687827   7.116358   3.768604   2.531297   8.934703
    41  H    6.403173   7.393461   3.213711   3.272590  10.344366
    42  H    6.217633   6.665318   4.213392   4.801642  10.042924
    43  H    5.857687   6.946712   5.148224   4.469171   8.604512
    44  H    7.944530   9.996723   7.725956   5.423950   8.756582
    45  H    9.379647  11.531414   9.881834   7.452897   8.891777
    46  H    9.554210  11.678045  10.600044   8.176298   8.324896
    47  H    8.378289  10.358395   9.467568   7.242310   7.581414
    48  H    6.490783   6.913735   3.133481   4.304173  10.834974
                   21         22         23         24         25
    21  H    0.000000
    22  H    2.483787   0.000000
    23  H    4.314058   2.481244   0.000000
    24  H   10.459675  11.061203   9.694162   0.000000
    25  S    9.666171   8.549843   6.137917   7.106359   0.000000
    26  S    7.909719   6.901825   5.044430   8.256973   4.208969
    27  C   11.125000  10.508647   8.295627   5.453828   2.812838
    28  C   11.570791  11.169023   9.093147   5.016060   4.069297
    29  C   11.082916  10.764568   8.826459   5.253769   4.531067
    30  C   10.045097   9.598775   7.674811   5.848286   3.986360
    31  C    8.115597   6.274304   3.871173   9.759299   3.548632
    32  C    7.763648   5.653830   3.510080  10.871183   4.928652
    33  C    7.285492   5.191433   3.376094  11.157068   5.667385
    34  C    7.125691   5.370833   3.584041  10.367075   5.324076
    35  C    7.518416   6.030158   3.940710   9.185335   4.052297
    36  C    7.965775   6.421393   4.041750   8.806411   2.910752
    37  C    8.609500   7.377236   5.010479   7.689905   1.736014
    38  C    8.601425   7.643352   5.488612   7.186988   2.609817
    39  C    9.504799   8.791868   6.676884   6.238697   2.653146
    40  C   10.061943   9.281320   7.025795   6.006524   1.750703
    41  H   11.687450  11.027002   8.764729   5.666203   3.023743
    42  H   11.634953  11.475081   9.656991   5.312565   5.616881
    43  H    9.834410   9.466618   7.715060   6.354447   4.818792
    44  H    8.695703   6.888433   4.464365   9.727865   3.290462
    45  H    8.134336   5.882055   3.924785  11.661720   5.630921
    46  H    7.280351   5.041726   3.680624  12.112867   6.744237
    47  H    7.035821   5.407486   4.049749  10.801516   6.218758
    48  H   12.462446  12.150451  10.094095   4.926857   4.954602
                   26         27         28         29         30
    26  S    0.000000
    27  C    5.324075   0.000000
    28  C    5.667383   1.393137   0.000000
    29  C    4.928650   2.438660   1.410304   0.000000
    30  C    3.548630   2.836748   2.434665   1.390489   0.000000
    31  C    3.986363   6.243327   7.315687   7.325105   6.265166
    32  C    4.531069   7.577436   8.590473   8.481093   7.325104
    33  C    4.069299   8.079606   8.924206   8.590474   7.315687
    34  C    2.812839   7.402719   8.079605   7.577436   6.243327
    35  C    1.750707   6.005094   6.683747   6.230315   4.927339
    36  C    2.653147   5.291740   6.214263   6.064435   4.928931
    37  C    2.609819   3.866376   4.798169   4.745868   3.733405
    38  C    1.736015   3.663120   4.214913   3.795840   2.579734
    39  C    2.910750   2.459994   2.803143   2.416826   1.409162
    40  C    4.052296   1.402623   2.403462   2.788553   2.444557
    41  H    6.218759   1.086803   2.160255   3.426128   3.923440
    42  H    5.630919   3.415181   2.163228   1.086273   2.146960
    43  H    3.290459   3.923903   3.423390   2.158387   1.087302
    44  H    4.818795   6.098632   7.300091   7.516385   6.605613
    45  H    5.616882   8.374699   9.462562   9.443696   8.331604
    46  H    4.954605   9.163416   9.990782   9.615298   8.316038
    47  H    3.023743   8.073242   8.608848   7.948859   6.571988
    48  H    6.744235   2.146405   1.086328   2.164633   3.412445
                   31         32         33         34         35
    31  C    0.000000
    32  C    1.390489   0.000000
    33  C    2.434666   1.410304   0.000000
    34  C    2.836750   2.438660   1.393137   0.000000
    35  C    2.444556   2.788550   2.403460   1.402622   0.000000
    36  C    1.409163   2.416825   2.803143   2.459994   1.424132
    37  C    2.579734   3.795839   4.214913   3.663121   2.336551
    38  C    3.733404   4.745867   4.798168   3.866376   2.477113
    39  C    4.928931   6.064435   6.214263   5.291739   3.905658
    40  C    4.927338   6.230314   6.683746   6.005093   4.610503
    41  H    6.571990   7.948861   8.608851   8.073244   6.699392
    42  H    8.331605   9.443696   9.462562   8.374698   7.072136
    43  H    6.605612   7.516383   7.300089   6.098630   4.902741
    44  H    1.087303   2.158387   3.423391   3.923905   3.432447
    45  H    2.146959   1.086273   2.163227   3.415181   3.874555
    46  H    3.412445   2.164633   1.086328   2.146407   3.389656
    47  H    3.923441   3.426129   2.160256   1.086802   2.169053
    48  H    8.316037   9.615296   9.990781   9.163414   7.766190
                   36         37         38         39         40
    36  C    0.000000
    37  C    1.429564   0.000000
    38  C    2.361669   1.390818   0.000000
    39  C    3.647999   2.361670   1.429564   0.000000
    40  C    3.905657   2.477112   2.336551   1.424133   0.000000
    41  H    5.807610   4.430653   4.504973   3.447304   2.169054
    42  H    7.033813   5.760478   4.709883   3.402697   3.874558
    43  H    5.210461   4.221724   2.886940   2.166846   3.432447
    44  H    2.166848   2.886941   4.221724   5.210463   4.902740
    45  H    3.402696   4.709882   5.760477   7.033812   7.072134
    46  H    3.889214   5.300025   5.835413   7.259688   7.766190
    47  H    3.447303   4.504972   4.430651   5.807607   6.699390
    48  H    7.259688   5.835412   5.300024   3.889214   3.389656
                   41         42         43         44         45
    41  H    0.000000
    42  H    4.314058   0.000000
    43  H    5.010647   2.483523   0.000000
    44  H    6.248351   8.568619   7.097914   0.000000
    45  H    8.645583  10.430619   8.568617   2.483523   0.000000
    46  H    9.694165  10.459676   8.231747   4.313194   2.483787
    47  H    8.827034   8.645580   6.248347   5.010648   4.314058
    48  H    2.481240   2.483789   4.313193   8.231747  10.459675
                   46         47         48
    46  H    0.000000
    47  H    2.481244   0.000000
    48  H   11.061203   9.694162   0.000000
 Stoichiometry    C28H16S4
 Framework group  C1[X(C28H16S4)]
 Deg. of freedom   138
 Full point group                 C1      NOp   1
 Largest Abelian subgroup         C1      NOp   1
 Largest concise Abelian subgroup C1      NOp   1
                         Standard orientation:                         
 ---------------------------------------------------------------------
 Center     Atomic      Atomic             Coordinates (Angstroms)
 Number     Number       Type             X           Y           Z
 ---------------------------------------------------------------------
      1         16           0       -0.463626    4.331228    0.411147
      2         16           0       -1.166865    0.362084   -0.799954
      3          6           0        2.321631    4.299684    0.019477
      4          6           0        3.460332    3.608456   -0.388435
      5          6           0        3.379440    2.265392   -0.811038
      6          6           0        2.153505    1.612134   -0.872682
      7          6           0       -3.784000    3.081180    0.483872
      8          6           0       -5.009933    2.427920    0.422231
      9          6           0       -5.090825    1.084854   -0.000366
     10          6           0       -3.952122    0.393623   -0.408272
     11          6           0       -2.710442    1.041243   -0.329750
     12          6           0       -2.619259    2.405553    0.068365
     13          6           0       -1.254028    2.829052    0.047175
     14          6           0       -0.376466    1.864262   -0.435981
     15          6           0        0.988765    2.287758   -0.457169
     16          6           0        1.079947    3.652068   -0.059047
     17          1           0        2.387921    5.334813    0.343908
     18          1           0        4.281736    1.746440   -1.121748
     19          1           0        2.092822    0.575464   -1.194954
     20          1           0       -3.723318    4.117852    0.806141
     21          1           0       -5.912230    2.946874    0.732931
     22          1           0       -6.058129    0.592433   -0.044577
     23          1           0       -4.018410   -0.641505   -0.732702
     24          1           0        4.427635    4.100876   -0.344218
     25         16           0        1.797457   -2.367009   -1.666700
     26         16           0       -0.166963   -2.326300    2.055505
     27          6           0        4.248171   -1.334892   -0.749753
     28          6           0        5.013373   -0.838602    0.303334
     29          6           0        4.490042   -0.774958    1.611398
     30          6           0        3.181397   -1.165242    1.873290
     31          6           0       -1.550907   -3.528064   -1.484488
     32          6           0       -2.859550   -3.918350   -1.222594
     33          6           0       -3.382880   -3.854713    0.085472
     34          6           0       -2.617675   -3.358428    1.138560
     35          6           0       -1.290833   -2.981571    0.883963
     36          6           0       -0.760130   -3.014693   -0.437176
     37          6           0        0.597404   -2.566725   -0.428261
     38          6           0        1.033088   -2.126585    0.817063
     39          6           0        2.390622   -1.678618    0.825980
     40          6           0        2.921327   -1.711746   -0.495160
     41          1           0        4.654780   -1.381790   -1.756535
     42          1           0        5.107017   -0.386745    2.416769
     43          1           0        2.780238   -1.119388    2.882842
     44          1           0       -1.149750   -3.573914   -2.494042
     45          1           0       -3.476528   -4.306555   -2.027966
     46          1           0       -4.408590   -4.161432    0.269728
     47          1           0       -3.024282   -3.311531    2.145342
     48          1           0        6.039085   -0.531888    0.119077
 ---------------------------------------------------------------------
 Rotational constants (GHZ):           0.1325630           0.1271285           0.0743036
 Counterpoise: doing full-system calculation.
 Standard basis: 6-311G(d,p) (5D, 7F)
 There are   736 symmetry adapted cartesian basis functions of A   symmetry.
 There are   704 symmetry adapted basis functions of A   symmetry.
   704 basis functions,  1208 primitive gaussians,   736 cartesian basis functions
   124 alpha electrons      124 beta electrons
       nuclear repulsion energy      3747.6007183429 Hartrees.
 NAtoms=   48 NActive=   48 NUniq=   48 SFac= 1.00D+00 NAtFMM=   60 NAOKFM=F Big=F
 Integral buffers will be    131072 words long.
 Raffenetti 2 integral format.
 Two-electron integral symmetry is turned on.
 Nuclear repulsion after empirical dispersion term =     3747.5395942963 Hartrees.
 One-electron integrals computed using PRISM.
 NBasis=   704 RedAO= T EigKep=  1.61D-04  NBF=   704
 NBsUse=   704 1.00D-06 EigRej= -1.00D+00 NBFU=   704
 ExpMin= 7.71D-02 ExpMax= 9.34D+04 ExpMxC= 3.17D+03 IAcc=3 IRadAn=         5 AccDes= 0.00D+00
 Harris functional with IExCor=  402 and IRadAn=       5 diagonalized for initial guess.
 HarFok:  IExCor=  402 AccDes= 0.00D+00 IRadAn=         5 IDoV= 1 UseB2=F ITyADJ=14
 ICtDFT=  3500011 ScaDFX=  1.000000  1.000000  1.000000  1.000000
 FoFCou: FMM=F IPFlag=           0 FMFlag=      100000 FMFlg1=           0
         NFxFlg=           0 DoJE=T BraDBF=F KetDBF=T FulRan=T
         wScrn=  0.000000 ICntrl=       500 IOpCl=  0 I1Cent=   200000004 NGrid=           0
         NMat0=    1 NMatS0=      1 NMatT0=    0 NMatD0=    1 NMtDS0=    0 NMtDT0=    0
 Petite list used in FoFCou.
 Requested convergence on RMS density matrix=1.00D-08 within 128 cycles.
 Requested convergence on MAX density matrix=1.00D-06.
 Requested convergence on             energy=1.00D-06.
 No special actions if energy rises.
 Integral accuracy reduced to 1.0D-05 until final iterations.
 Initial convergence to 1.0D-05 achieved.  Increase integral accuracy.
 SCF Done:  E(RB3LYP) =  -2669.81040608     A.U. after   15 cycles
            NFock= 15  Conv=0.75D-08     -V/T= 2.0026

 **********************************************************************

            Population analysis using the SCF density.

 **********************************************************************

 Orbital symmetries:
       Occupied  (A) (A) (A) (A) (A) (A) (A) (A) (A) (A) (A) (A)
                 (A) (A) (A) (A) (A) (A) (A) (A) (A) (A) (A) (A)
                 (A) (A) (A) (A) (A) (A) (A) (A) (A) (A) (A) (A)
                 (A) (A) (A) (A) (A) (A) (A) (A) (A) (A) (A) (A)
                 (A) (A) (A) (A) (A) (A) (A) (A) (A) (A) (A) (A)
                 (A) (A) (A) (A) (A) (A) (A) (A) (A) (A) (A) (A)
                 (A) (A) (A) (A) (A) (A) (A) (A) (A) (A) (A) (A)
                 (A) (A) (A) (A) (A) (A) (A) (A) (A) (A) (A) (A)
                 (A) (A) (A) (A) (A) (A) (A) (A) (A) (A) (A) (A)
                 (A) (A) (A) (A) (A) (A) (A) (A) (A) (A) (A) (A)
                 (A) (A) (A) (A)
       Virtual   (A) (A) (A) (A) (A) (A) (A) (A) (A) (A) (A) (A)
                 (A) (A) (A) (A) (A) (A) (A) (A) (A) (A) (A) (A)
                 (A) (A) (A) (A) (A) (A) (A) (A) (A) (A) (A) (A)
                 (A) (A) (A) (A) (A) (A) (A) (A) (A) (A) (A) (A)
                 (A) (A) (A) (A) (A) (A) (A) (A) (A) (A) (A) (A)
                 (A) (A) (A) (A) (A) (A) (A) (A) (A) (A) (A) (A)
                 (A) (A) (A) (A) (A) (A) (A) (A) (A) (A) (A) (A)
                 (A) (A) (A) (A) (A) (A) (A) (A) (A) (A) (A) (A)
                 (A) (A) (A) (A) (A) (A) (A) (A) (A) (A) (A) (A)
                 (A) (A) (A) (A) (A) (A) (A) (A) (A) (A) (A) (A)
                 (A) (A) (A) (A) (A) (A) (A) (A) (A) (A) (A) (A)
                 (A) (A) (A) (A) (A) (A) (A) (A) (A) (A) (A) (A)
                 (A) (A) (A) (A) (A) (A) (A) (A) (A) (A) (A) (A)
                 (A) (A) (A) (A) (A) (A) (A) (A) (A) (A) (A) (A)
                 (A) (A) (A) (A) (A) (A) (A) (A) (A) (A) (A) (A)
                 (A) (A) (A) (A) (A) (A) (A) (A) (A) (A) (A) (A)
                 (A) (A) (A) (A) (A) (A) (A) (A) (A) (A) (A) (A)
                 (A) (A) (A) (A) (A) (A) (A) (A) (A) (A) (A) (A)
                 (A) (A) (A) (A) (A) (A) (A) (A) (A) (A) (A) (A)
                 (A) (A) (A) (A) (A) (A) (A) (A) (A) (A) (A) (A)
                 (A) (A) (A) (A) (A) (A) (A) (A) (A) (A) (A) (A)
                 (A) (A) (A) (A) (A) (A) (A) (A) (A) (A) (A) (A)
                 (A) (A) (A) (A) (A) (A) (A) (A) (A) (A) (A) (A)
                 (A) (A) (A) (A) (A) (A) (A) (A) (A) (A) (A) (A)
                 (A) (A) (A) (A) (A) (A) (A) (A) (A) (A) (A) (A)
                 (A) (A) (A) (A) (A) (A) (A) (A) (A) (A) (A) (A)
                 (A) (A) (A) (A) (A) (A) (A) (A) (A) (A) (A) (A)
                 (A) (A) (A) (A) (A) (A) (A) (A) (A) (A) (A) (A)
                 (A) (A) (A) (A) (A) (A) (A) (A) (A) (A) (A) (A)
                 (A) (A) (A) (A) (A) (A) (A) (A) (A) (A) (A) (A)
                 (A) (A) (A) (A) (A) (A) (A) (A) (A) (A) (A) (A)
                 (A) (A) (A) (A) (A) (A) (A) (A) (A) (A) (A) (A)
                 (A) (A) (A) (A) (A) (A) (A) (A) (A) (A) (A) (A)
                 (A) (A) (A) (A) (A) (A) (A) (A) (A) (A) (A) (A)
                 (A) (A) (A) (A) (A) (A) (A) (A) (A) (A) (A) (A)
                 (A) (A) (A) (A) (A) (A) (A) (A) (A) (A) (A) (A)
                 (A) (A) (A) (A) (A) (A) (A) (A) (A) (A) (A) (A)
                 (A) (A) (A) (A) (A) (A) (A) (A) (A) (A) (A) (A)
                 (A) (A) (A) (A) (A) (A) (A) (A) (A) (A) (A) (A)
                 (A) (A) (A) (A) (A) (A) (A) (A) (A) (A) (A) (A)
                 (A) (A) (A) (A) (A) (A) (A) (A) (A) (A) (A) (A)
                 (A) (A) (A) (A) (A) (A) (A) (A) (A) (A) (A) (A)
                 (A) (A) (A) (A) (A) (A) (A) (A) (A) (A) (A) (A)
                 (A) (A) (A) (A) (A) (A) (A) (A) (A) (A) (A) (A)
                 (A) (A) (A) (A) (A) (A) (A) (A) (A) (A) (A) (A)
                 (A) (A) (A) (A) (A) (A) (A) (A) (A) (A) (A) (A)
                 (A) (A) (A) (A) (A) (A) (A) (A) (A) (A) (A) (A)
                 (A) (A) (A) (A) (A) (A) (A) (A) (A) (A) (A) (A)
                 (A) (A) (A) (A)
 The electronic state is 1-A.
 Alpha  occ. eigenvalues --  -88.88533 -88.88303 -88.87429 -88.87154 -10.22128
 Alpha  occ. eigenvalues --  -10.22052 -10.21603 -10.21543 -10.21068 -10.20996
 Alpha  occ. eigenvalues --  -10.20534 -10.20471 -10.20376 -10.20330 -10.19402
 Alpha  occ. eigenvalues --  -10.19333 -10.19328 -10.19250 -10.19062 -10.19011
 Alpha  occ. eigenvalues --  -10.18789 -10.18771 -10.18632 -10.18569 -10.18348
 Alpha  occ. eigenvalues --  -10.18271 -10.18100 -10.17782 -10.17748 -10.17742
 Alpha  occ. eigenvalues --  -10.17676 -10.17455  -7.97184  -7.96947  -7.96086
 Alpha  occ. eigenvalues --   -7.95811  -5.93511  -5.93278  -5.93152  -5.92917
 Alpha  occ. eigenvalues --   -5.92683  -5.92445  -5.92415  -5.92140  -5.92057
 Alpha  occ. eigenvalues --   -5.91777  -5.91585  -5.91308  -0.92626  -0.91541
 Alpha  occ. eigenvalues --   -0.88554  -0.87474  -0.84470  -0.83419  -0.82399
 Alpha  occ. eigenvalues --   -0.81340  -0.78084  -0.77678  -0.77041  -0.76611
 Alpha  occ. eigenvalues --   -0.74263  -0.73212  -0.72449  -0.71412  -0.70314
 Alpha  occ. eigenvalues --   -0.69264  -0.64924  -0.63893  -0.61835  -0.60804
 Alpha  occ. eigenvalues --   -0.59677  -0.58770  -0.58646  -0.57745  -0.57283
 Alpha  occ. eigenvalues --   -0.56247  -0.51731  -0.50738  -0.50518  -0.49498
 Alpha  occ. eigenvalues --   -0.49394  -0.48380  -0.47799  -0.46929  -0.45949
 Alpha  occ. eigenvalues --   -0.45791  -0.45059  -0.44809  -0.44287  -0.43839
 Alpha  occ. eigenvalues --   -0.43660  -0.43150  -0.42606  -0.42333  -0.41138
 Alpha  occ. eigenvalues --   -0.40783  -0.40120  -0.39862  -0.39439  -0.38415
 Alpha  occ. eigenvalues --   -0.37592  -0.36941  -0.36597  -0.36489  -0.35920
 Alpha  occ. eigenvalues --   -0.35502  -0.35047  -0.34932  -0.34808  -0.34057
 Alpha  occ. eigenvalues --   -0.33865  -0.33725  -0.32802  -0.31865  -0.29156
 Alpha  occ. eigenvalues --   -0.28489  -0.28105  -0.27493  -0.25302  -0.24223
 Alpha  occ. eigenvalues --   -0.23234  -0.22173  -0.21431  -0.20383
 Alpha virt. eigenvalues --   -0.06022  -0.04919  -0.02745  -0.02015  -0.01623
 Alpha virt. eigenvalues --   -0.00909  -0.00778   0.00000   0.00468   0.01207
 Alpha virt. eigenvalues --    0.01525   0.02638   0.03680   0.03824   0.04259
 Alpha virt. eigenvalues --    0.04747   0.04900   0.05519   0.06453   0.06989
 Alpha virt. eigenvalues --    0.07179   0.07547   0.07853   0.08854   0.09188
 Alpha virt. eigenvalues --    0.10392   0.10982   0.11912   0.12498   0.12632
 Alpha virt. eigenvalues --    0.12727   0.13059   0.13157   0.13402   0.13894
 Alpha virt. eigenvalues --    0.14143   0.14551   0.14950   0.15673   0.16009
 Alpha virt. eigenvalues --    0.16717   0.17238   0.18054   0.18801   0.19912
 Alpha virt. eigenvalues --    0.20905   0.21234   0.21720   0.22859   0.23003
 Alpha virt. eigenvalues --    0.23560   0.24239   0.24394   0.25160   0.26802
 Alpha virt. eigenvalues --    0.27295   0.27379   0.27797   0.28095   0.28225
 Alpha virt. eigenvalues --    0.28545   0.28985   0.29153   0.29370   0.29979
 Alpha virt. eigenvalues --    0.31815   0.32367   0.33670   0.33884   0.34878
 Alpha virt. eigenvalues --    0.35077   0.35300   0.36194   0.36641   0.36904
 Alpha virt. eigenvalues --    0.37945   0.38004   0.38212   0.38595   0.39012
 Alpha virt. eigenvalues --    0.39535   0.39914   0.40203   0.40611   0.40826
 Alpha virt. eigenvalues --    0.41088   0.41254   0.41591   0.41790   0.42102
 Alpha virt. eigenvalues --    0.42307   0.42820   0.43124   0.43297   0.43590
 Alpha virt. eigenvalues --    0.43746   0.44101   0.44308   0.44617   0.45025
 Alpha virt. eigenvalues --    0.45699   0.45977   0.46211   0.46307   0.46479
 Alpha virt. eigenvalues --    0.47243   0.48385   0.48666   0.48809   0.49304
 Alpha virt. eigenvalues --    0.49521   0.50606   0.50731   0.50946   0.51485
 Alpha virt. eigenvalues --    0.52328   0.52866   0.53715   0.53837   0.54169
 Alpha virt. eigenvalues --    0.55264   0.55464   0.56020   0.56692   0.57103
 Alpha virt. eigenvalues --    0.57907   0.58066   0.58141   0.58722   0.58966
 Alpha virt. eigenvalues --    0.59027   0.59466   0.59785   0.59850   0.60057
 Alpha virt. eigenvalues --    0.60807   0.60842   0.61267   0.61372   0.61817
 Alpha virt. eigenvalues --    0.62443   0.62602   0.63115   0.63514   0.64138
 Alpha virt. eigenvalues --    0.64552   0.65451   0.66290   0.67122   0.67519
 Alpha virt. eigenvalues --    0.68427   0.69358   0.69631   0.70091   0.70693
 Alpha virt. eigenvalues --    0.71093   0.71500   0.71768   0.72186   0.72383
 Alpha virt. eigenvalues --    0.72955   0.73285   0.73446   0.74284   0.74804
 Alpha virt. eigenvalues --    0.75163   0.75471   0.76003   0.76377   0.77250
 Alpha virt. eigenvalues --    0.77565   0.77724   0.78196   0.78681   0.79232
 Alpha virt. eigenvalues --    0.79827   0.79950   0.80750   0.80904   0.81383
 Alpha virt. eigenvalues --    0.82126   0.82235   0.83000   0.83743   0.84030
 Alpha virt. eigenvalues --    0.84453   0.84790   0.85913   0.86159   0.86967
 Alpha virt. eigenvalues --    0.87115   0.87346   0.87899   0.88690   0.89130
 Alpha virt. eigenvalues --    0.89750   0.90211   0.90744   0.91092   0.91771
 Alpha virt. eigenvalues --    0.92620   0.93474   0.93520   0.94303   0.94703
 Alpha virt. eigenvalues --    0.95784   0.96495   0.97279   0.97354   0.98327
 Alpha virt. eigenvalues --    0.98711   0.99122   0.99472   0.99658   1.00248
 Alpha virt. eigenvalues --    1.00632   1.00901   1.01804   1.02618   1.03217
 Alpha virt. eigenvalues --    1.04144   1.04511   1.05975   1.06870   1.07101
 Alpha virt. eigenvalues --    1.07587   1.08078   1.08480   1.09307   1.09540
 Alpha virt. eigenvalues --    1.09843   1.10150   1.10778   1.11006   1.11235
 Alpha virt. eigenvalues --    1.11645   1.11906   1.13574   1.15834   1.17347
 Alpha virt. eigenvalues --    1.18775   1.19905   1.20861   1.21527   1.21993
 Alpha virt. eigenvalues --    1.22890   1.23628   1.24769   1.25008   1.26346
 Alpha virt. eigenvalues --    1.28139   1.28593   1.29315   1.29542   1.30711
 Alpha virt. eigenvalues --    1.32175   1.34777   1.35996   1.38638   1.40309
 Alpha virt. eigenvalues --    1.41052   1.41494   1.41580   1.42943   1.43376
 Alpha virt. eigenvalues --    1.43838   1.44275   1.44819   1.45769   1.46629
 Alpha virt. eigenvalues --    1.47491   1.48365   1.48752   1.49131   1.49605
 Alpha virt. eigenvalues --    1.50992   1.52720   1.53387   1.53575   1.54168
 Alpha virt. eigenvalues --    1.54756   1.55721   1.56022   1.56676   1.57044
 Alpha virt. eigenvalues --    1.58381   1.58575   1.59247   1.59639   1.59836
 Alpha virt. eigenvalues --    1.60887   1.61007   1.61214   1.61379   1.61802
 Alpha virt. eigenvalues --    1.62440   1.62528   1.62965   1.63620   1.64149
 Alpha virt. eigenvalues --    1.65013   1.66385   1.67949   1.68549   1.69588
 Alpha virt. eigenvalues --    1.70351   1.70553   1.72084   1.72353   1.73161
 Alpha virt. eigenvalues --    1.73614   1.73653   1.74028   1.74518   1.75774
 Alpha virt. eigenvalues --    1.75851   1.76484   1.77119   1.80340   1.80634
 Alpha virt. eigenvalues --    1.81193   1.81555   1.82152   1.82554   1.82839
 Alpha virt. eigenvalues --    1.83091   1.83435   1.84258   1.84430   1.85406
 Alpha virt. eigenvalues --    1.86111   1.86485   1.87169   1.88283   1.88896
 Alpha virt. eigenvalues --    1.89396   1.89515   1.89996   1.90238   1.90400
 Alpha virt. eigenvalues --    1.90486   1.91162   1.91404   1.92097   1.92687
 Alpha virt. eigenvalues --    1.92863   1.93708   1.94365   1.94446   1.95104
 Alpha virt. eigenvalues --    1.95531   1.96027   1.96243   1.97340   1.97947
 Alpha virt. eigenvalues --    1.98245   1.99298   1.99929   2.00408   2.00715
 Alpha virt. eigenvalues --    2.01388   2.02147   2.02296   2.03144   2.03453
 Alpha virt. eigenvalues --    2.05027   2.05114   2.05939   2.07298   2.08062
 Alpha virt. eigenvalues --    2.08208   2.09605   2.10955   2.12270   2.13151
 Alpha virt. eigenvalues --    2.13668   2.14745   2.16894   2.23030   2.23516
 Alpha virt. eigenvalues --    2.26044   2.26327   2.26519   2.26912   2.27209
 Alpha virt. eigenvalues --    2.28079   2.29123   2.30502   2.32555   2.32902
 Alpha virt. eigenvalues --    2.33175   2.33424   2.33639   2.33733   2.33887
 Alpha virt. eigenvalues --    2.34560   2.34988   2.36104   2.37274   2.37555
 Alpha virt. eigenvalues --    2.38618   2.40116   2.41731   2.42216   2.47908
 Alpha virt. eigenvalues --    2.49222   2.52235   2.52752   2.53955   2.55952
 Alpha virt. eigenvalues --    2.56312   2.56633   2.57307   2.58034   2.58417
 Alpha virt. eigenvalues --    2.58611   2.60146   2.60432   2.60831   2.61318
 Alpha virt. eigenvalues --    2.61924   2.62422   2.63122   2.63563   2.64019
 Alpha virt. eigenvalues --    2.64831   2.65184   2.65730   2.65954   2.66051
 Alpha virt. eigenvalues --    2.66247   2.67255   2.67641   2.68893   2.68965
 Alpha virt. eigenvalues --    2.69550   2.69642   2.69956   2.71793   2.73065
 Alpha virt. eigenvalues --    2.73419   2.73633   2.74279   2.74940   2.76095
 Alpha virt. eigenvalues --    2.77597   2.79143   2.79864   2.80042   2.81085
 Alpha virt. eigenvalues --    2.81475   2.81846   2.82144   2.83038   2.83601
 Alpha virt. eigenvalues --    2.84596   2.84778   2.85888   2.86023   2.86829
 Alpha virt. eigenvalues --    2.88121   2.89939   2.91789   2.92655   2.94245
 Alpha virt. eigenvalues --    2.94661   2.97659   2.99511   3.04166   3.05077
 Alpha virt. eigenvalues --    3.05782   3.06834   3.08250   3.08926   3.11969
 Alpha virt. eigenvalues --    3.12212   3.16033   3.16768   3.17950   3.18533
 Alpha virt. eigenvalues --    3.23924   3.24249   3.25112   3.25766   3.30438
 Alpha virt. eigenvalues --    3.30545   3.31029   3.31573   3.32679   3.33268
 Alpha virt. eigenvalues --    3.35004   3.36187   3.38855   3.40095   3.43704
 Alpha virt. eigenvalues --    3.44376   3.45884   3.46788   3.46968   3.47812
 Alpha virt. eigenvalues --    3.51810   3.51868   3.55437   3.56338   3.56771
 Alpha virt. eigenvalues --    3.57047   3.63212   3.64541   3.77664   3.77860
 Alpha virt. eigenvalues --    3.83545   3.84222   3.98722   3.99775   4.00252
 Alpha virt. eigenvalues --    4.01223   4.01570   4.02760   4.04173   4.05222
 Alpha virt. eigenvalues --    4.11438   4.11693   4.13093   4.14767   4.20780
 Alpha virt. eigenvalues --    4.22082   4.54766   4.56296   4.79438   4.79556
 Alpha virt. eigenvalues --    4.80581   4.81102   7.81812   7.83429   7.87826
 Alpha virt. eigenvalues --    7.89621  17.20642  17.21199  17.22911  17.24070
 Alpha virt. eigenvalues --   17.44454  17.46155  17.51552  17.52655  17.52977
 Alpha virt. eigenvalues --   17.54144  17.54677  17.57994  23.36985  23.38152
 Alpha virt. eigenvalues --   23.55225  23.55642  23.69713  23.70678  23.85590
 Alpha virt. eigenvalues --   23.86251  23.86872  23.87116  23.90848  23.90996
 Alpha virt. eigenvalues --   23.92510  23.92930  23.98030  23.99123  24.00904
 Alpha virt. eigenvalues --   24.01924  24.03532  24.04541  24.06980  24.07102
 Alpha virt. eigenvalues --   24.08037  24.08290  24.14391  24.14487  24.15502
 Alpha virt. eigenvalues --   24.15827 188.92973 188.94936 189.00342 189.02643
          Condensed to atoms (all electrons):
               1          2          3          4          5          6
     1  S   15.383756   0.009196  -0.063006   0.006187  -0.000256   0.010009
     2  S    0.009196  15.388333  -0.000097  -0.000081   0.000347   0.001174
     3  C   -0.063006  -0.000097   4.880021   0.501812  -0.031289  -0.063191
     4  C    0.006187  -0.000081   0.501812   4.898381   0.476323  -0.039667
     5  C   -0.000256   0.000347  -0.031289   0.476323   4.915306   0.491600
     6  C    0.010009   0.001174  -0.063191  -0.039667   0.491600   4.898621
     7  C    0.002611   0.009784  -0.000000   0.000000  -0.000000  -0.000002
     8  C    0.000310  -0.000356   0.000000  -0.000000   0.000000  -0.000000
     9  C   -0.000029   0.006174  -0.000000   0.000000  -0.000000  -0.000000
    10  C   -0.000207  -0.063288   0.000000  -0.000000   0.000000  -0.000001
    11  C    0.009154   0.286025   0.000034  -0.000002   0.000004  -0.000254
    12  C   -0.070754  -0.093385  -0.000514   0.000027  -0.000018   0.000058
    13  C    0.315555  -0.096321  -0.000581   0.000007  -0.000690   0.012192
    14  C   -0.093368   0.296245   0.018834  -0.001692   0.015914  -0.091794
    15  C   -0.087474  -0.071909   0.016746  -0.059740  -0.008194   0.470170
    16  C    0.305450   0.007881   0.433293  -0.041786  -0.062962  -0.035673
    17  H   -0.003361   0.000025   0.419699  -0.037842   0.007581  -0.000679
    18  H    0.000110   0.000004   0.007731  -0.046279   0.409479  -0.039086
    19  H   -0.000653   0.004817  -0.001839   0.009312  -0.048141   0.411027
    20  H    0.003309  -0.000687  -0.000003   0.000000  -0.000000   0.000000
    21  H   -0.000003   0.000123   0.000000  -0.000000  -0.000000   0.000000
    22  H   -0.000003  -0.000368  -0.000000   0.000000   0.000000   0.000000
    23  H    0.000018  -0.003497   0.000000  -0.000000   0.000000  -0.000000
    24  H   -0.000373  -0.000003  -0.042573   0.414630  -0.043963   0.008045
    25  S    0.000006  -0.004439  -0.000009   0.000034   0.000462  -0.005687
    26  S   -0.000048  -0.009244  -0.000000  -0.000001  -0.000007  -0.000055
    27  C    0.000000  -0.000032   0.000004  -0.000080  -0.003314  -0.002037
    28  C   -0.000000   0.000032   0.000011  -0.000418  -0.004457   0.001626
    29  C   -0.000000   0.000021   0.000004  -0.000101   0.000114   0.000009
    30  C    0.000007  -0.000014  -0.000009  -0.000016   0.000293   0.002048
    31  C    0.000000   0.000055   0.000000  -0.000000  -0.000000  -0.000000
    32  C    0.000000  -0.000252  -0.000000   0.000000  -0.000000  -0.000000
    33  C   -0.000000  -0.000407   0.000000  -0.000000   0.000000   0.000000
    34  C   -0.000000  -0.001660  -0.000000   0.000000  -0.000000  -0.000000
    35  C   -0.000000  -0.007847  -0.000000   0.000000  -0.000000  -0.000009
    36  C    0.000000   0.002897   0.000000  -0.000000  -0.000000   0.000031
    37  C   -0.000001  -0.011610   0.000000  -0.000001   0.000029   0.001154
    38  C   -0.000008  -0.003713   0.000001  -0.000001   0.000036  -0.000199
    39  C    0.000005  -0.000451  -0.000004   0.000046  -0.000019  -0.003069
    40  C    0.000006  -0.002293  -0.000015   0.000112   0.000615  -0.010425
    41  H   -0.000000   0.000003   0.000000   0.000002   0.000117  -0.000100
    42  H    0.000000   0.000000  -0.000000   0.000032   0.000108   0.000015
    43  H    0.000003   0.000022  -0.000001  -0.000005   0.000028   0.000125
    44  H   -0.000000   0.000141   0.000000  -0.000000  -0.000000   0.000000
    45  H    0.000000   0.000001  -0.000000   0.000000   0.000000  -0.000000
    46  H    0.000000   0.000014  -0.000000   0.000000  -0.000000  -0.000000
    47  H   -0.000000  -0.000036  -0.000000   0.000000  -0.000000  -0.000000
    48  H    0.000000   0.000001  -0.000001   0.000012   0.000061   0.000045
               7          8          9         10         11         12
     1  S    0.002611   0.000310  -0.000029  -0.000207   0.009154  -0.070754
     2  S    0.009784  -0.000356   0.006174  -0.063288   0.286025  -0.093385
     3  C   -0.000000   0.000000  -0.000000   0.000000   0.000034  -0.000514
     4  C    0.000000  -0.000000   0.000000  -0.000000  -0.000002   0.000027
     5  C   -0.000000   0.000000  -0.000000   0.000000   0.000004  -0.000018
     6  C   -0.000002  -0.000000  -0.000000  -0.000001  -0.000254   0.000058
     7  C    4.887263   0.508305  -0.048936  -0.056558  -0.044264   0.478971
     8  C    0.508305   4.884327   0.488878  -0.038363  -0.055935  -0.027622
     9  C   -0.048936   0.488878   4.895216   0.506865  -0.045642  -0.052952
    10  C   -0.056558  -0.038363   0.506865   4.870860   0.444037   0.009662
    11  C   -0.044264  -0.055935  -0.045642   0.444037   5.423292   0.413218
    12  C    0.478971  -0.027622  -0.052952   0.009662   0.413218   4.956877
    13  C   -0.090958   0.013555  -0.001252   0.018040  -0.098218   0.392941
    14  C    0.011275  -0.000611  -0.000015  -0.000585  -0.077183  -0.013132
    15  C   -0.000007  -0.000016   0.000025  -0.000515   0.003891   0.021223
    16  C   -0.000293   0.000002  -0.000002   0.000033  -0.000096   0.003605
    17  H   -0.000000   0.000000  -0.000000   0.000000   0.000001  -0.000008
    18  H    0.000000  -0.000000   0.000000  -0.000000  -0.000000  -0.000000
    19  H   -0.000001  -0.000000  -0.000000  -0.000004  -0.000243   0.000026
    20  H    0.419200  -0.040235   0.007630  -0.000957   0.009064  -0.045111
    21  H   -0.038586   0.411361  -0.042596   0.007114   0.000240   0.007642
    22  H    0.007769  -0.043633   0.414344  -0.041927   0.009040  -0.000354
    23  H   -0.000715   0.007238  -0.038980   0.415219  -0.043139   0.007374
    24  H    0.000000   0.000000   0.000000  -0.000000  -0.000000  -0.000000
    25  S   -0.000001   0.000000  -0.000001  -0.000012   0.000073  -0.000035
    26  S   -0.000015  -0.000009   0.000016   0.000091  -0.000146   0.000006
    27  C    0.000000  -0.000000   0.000000  -0.000000   0.000000   0.000000
    28  C    0.000000  -0.000000  -0.000000  -0.000000  -0.000000   0.000000
    29  C   -0.000000   0.000000  -0.000000  -0.000000   0.000000  -0.000000
    30  C   -0.000000   0.000000   0.000000   0.000000  -0.000000  -0.000000
    31  C    0.000000  -0.000000   0.000014   0.000144  -0.000148  -0.000001
    32  C    0.000000  -0.000000   0.000001  -0.000669   0.000074   0.000002
    33  C   -0.000000  -0.000000  -0.000087  -0.000811   0.000122   0.000005
    34  C   -0.000001  -0.000002  -0.000072   0.000401   0.000365   0.000014
    35  C    0.000000   0.000000   0.000006   0.000433  -0.000081  -0.000019
    36  C    0.000001  -0.000000   0.000012   0.000344  -0.000379   0.000003
    37  C    0.000000   0.000000  -0.000001  -0.000053   0.000486  -0.000005
    38  C    0.000000   0.000000  -0.000000  -0.000014   0.000082   0.000002
    39  C    0.000000  -0.000000   0.000000   0.000000  -0.000025   0.000003
    40  C    0.000000   0.000000   0.000000  -0.000000   0.000001   0.000000
    41  H   -0.000000   0.000000  -0.000000  -0.000000   0.000000  -0.000000
    42  H   -0.000000   0.000000  -0.000000  -0.000000   0.000000  -0.000000
    43  H    0.000000  -0.000000  -0.000000   0.000000   0.000000   0.000000
    44  H    0.000000   0.000000   0.000000   0.000009  -0.000009  -0.000000
    45  H    0.000000   0.000000  -0.000000   0.000008  -0.000000   0.000000
    46  H   -0.000000   0.000000   0.000009   0.000047  -0.000003  -0.000000
    47  H   -0.000000  -0.000001   0.000020   0.000103   0.000006  -0.000001
    48  H    0.000000  -0.000000   0.000000   0.000000  -0.000000   0.000000
              13         14         15         16         17         18
     1  S    0.315555  -0.093368  -0.087474   0.305450  -0.003361   0.000110
     2  S   -0.096321   0.296245  -0.071909   0.007881   0.000025   0.000004
     3  C   -0.000581   0.018834   0.016746   0.433293   0.419699   0.007731
     4  C    0.000007  -0.001692  -0.059740  -0.041786  -0.037842  -0.046279
     5  C   -0.000690   0.015914  -0.008194  -0.062962   0.007581   0.409479
     6  C    0.012192  -0.091794   0.470170  -0.035673  -0.000679  -0.039086
     7  C   -0.090958   0.011275  -0.000007  -0.000293  -0.000000   0.000000
     8  C    0.013555  -0.000611  -0.000016   0.000002   0.000000  -0.000000
     9  C   -0.001252  -0.000015   0.000025  -0.000002  -0.000000   0.000000
    10  C    0.018040  -0.000585  -0.000515   0.000033   0.000000  -0.000000
    11  C   -0.098218  -0.077183   0.003891  -0.000096   0.000001  -0.000000
    12  C    0.392941  -0.013132   0.021223   0.003605  -0.000008  -0.000000
    13  C    5.472576   0.362114  -0.007905  -0.087757  -0.000118   0.000018
    14  C    0.362114   5.491272   0.393952  -0.104029  -0.000329  -0.000412
    15  C   -0.007905   0.393952   4.982206   0.399896   0.007350   0.008902
    16  C   -0.087757  -0.104029   0.399896   5.402530  -0.047949  -0.000166
    17  H   -0.000118  -0.000329   0.007350  -0.047949   0.569512  -0.000318
    18  H    0.000018  -0.000412   0.008902  -0.000166  -0.000318   0.579578
    19  H    0.000287  -0.017133  -0.053618   0.010742   0.000062  -0.009916
    20  H   -0.012281   0.000098   0.000020  -0.000110   0.000000   0.000000
    21  H   -0.000468   0.000015  -0.000000  -0.000000  -0.000000   0.000000
    22  H   -0.000004   0.000010  -0.000000  -0.000000   0.000000   0.000000
    23  H   -0.000262  -0.000167  -0.000009   0.000001   0.000000  -0.000000
    24  H    0.000010  -0.000005  -0.000494   0.009161  -0.007949  -0.007979
    25  S    0.000066   0.000159  -0.000822  -0.000022  -0.000000  -0.000303
    26  S    0.000233  -0.000087   0.000212  -0.000030   0.000000  -0.000001
    27  C   -0.000000  -0.000005   0.000188  -0.000003   0.000000   0.004915
    28  C   -0.000000   0.000001   0.000239  -0.000017   0.000001   0.005926
    29  C   -0.000000  -0.000006  -0.000076  -0.000004   0.000000  -0.000055
    30  C   -0.000002  -0.000024   0.000069   0.000002  -0.000000  -0.000345
    31  C   -0.000002   0.000028   0.000000   0.000000   0.000000  -0.000000
    32  C   -0.000000   0.000004   0.000000   0.000000  -0.000000  -0.000000
    33  C    0.000000  -0.000003  -0.000000   0.000000   0.000000   0.000000
    34  C    0.000001  -0.000001   0.000001  -0.000000  -0.000000  -0.000000
    35  C    0.000000   0.000034   0.000009  -0.000000  -0.000000  -0.000000
    36  C   -0.000011   0.000132  -0.000023  -0.000000   0.000000   0.000000
    37  C   -0.000000   0.000284  -0.000132  -0.000005   0.000000   0.000027
    38  C   -0.000020   0.000393  -0.000151   0.000001   0.000000   0.000007
    39  C    0.000000  -0.000039   0.000022   0.000012  -0.000000  -0.000320
    40  C   -0.000001   0.000033  -0.000278   0.000028  -0.000000  -0.000735
    41  H    0.000000  -0.000001  -0.000006   0.000000  -0.000000   0.000295
    42  H    0.000000  -0.000000  -0.000008  -0.000001  -0.000000  -0.000030
    43  H   -0.000001  -0.000012   0.000026  -0.000000   0.000000   0.000003
    44  H    0.000000  -0.000005  -0.000000  -0.000000   0.000000  -0.000000
    45  H   -0.000000   0.000000   0.000000   0.000000  -0.000000  -0.000000
    46  H   -0.000000   0.000000   0.000000  -0.000000   0.000000   0.000000
    47  H    0.000000   0.000001   0.000000  -0.000000  -0.000000  -0.000000
    48  H   -0.000000  -0.000000   0.000002  -0.000000  -0.000000   0.000214
              19         20         21         22         23         24
     1  S   -0.000653   0.003309  -0.000003  -0.000003   0.000018  -0.000373
     2  S    0.004817  -0.000687   0.000123  -0.000368  -0.003497  -0.000003
     3  C   -0.001839  -0.000003   0.000000  -0.000000   0.000000  -0.042573
     4  C    0.009312   0.000000  -0.000000   0.000000  -0.000000   0.414630
     5  C   -0.048141  -0.000000  -0.000000   0.000000   0.000000  -0.043963
     6  C    0.411027   0.000000   0.000000   0.000000  -0.000000   0.008045
     7  C   -0.000001   0.419200  -0.038586   0.007769  -0.000715   0.000000
     8  C   -0.000000  -0.040235   0.411361  -0.043633   0.007238   0.000000
     9  C   -0.000000   0.007630  -0.042596   0.414344  -0.038980   0.000000
    10  C   -0.000004  -0.000957   0.007114  -0.041927   0.415219  -0.000000
    11  C   -0.000243   0.009064   0.000240   0.009040  -0.043139  -0.000000
    12  C    0.000026  -0.045111   0.007642  -0.000354   0.007374  -0.000000
    13  C    0.000287  -0.012281  -0.000468  -0.000004  -0.000262   0.000010
    14  C   -0.017133   0.000098   0.000015   0.000010  -0.000167  -0.000005
    15  C   -0.053618   0.000020  -0.000000  -0.000000  -0.000009  -0.000494
    16  C    0.010742  -0.000110  -0.000000  -0.000000   0.000001   0.009161
    17  H    0.000062   0.000000  -0.000000   0.000000   0.000000  -0.007949
    18  H   -0.009916   0.000000   0.000000   0.000000  -0.000000  -0.007979
    19  H    0.590708   0.000000   0.000000   0.000000   0.000001  -0.000282
    20  H    0.000000   0.574638  -0.007755  -0.000315   0.000060   0.000000
    21  H    0.000000  -0.007755   0.576198  -0.007653  -0.000307   0.000000
    22  H    0.000000  -0.000315  -0.007653   0.576650  -0.007584  -0.000000
    23  H    0.000001   0.000060  -0.000307  -0.007584   0.551892   0.000000
    24  H   -0.000282   0.000000   0.000000  -0.000000   0.000000   0.577867
    25  S    0.003424  -0.000000   0.000000  -0.000000   0.000004   0.000003
    26  S   -0.000046   0.000001  -0.000000  -0.000000   0.000003   0.000000
    27  C   -0.000958  -0.000000  -0.000000   0.000000  -0.000000  -0.000012
    28  C   -0.002352   0.000000  -0.000000   0.000000   0.000000  -0.000032
    29  C   -0.000501  -0.000000   0.000000  -0.000000   0.000000   0.000012
    30  C   -0.001717   0.000000   0.000000  -0.000000  -0.000000   0.000004
    31  C   -0.000006   0.000000  -0.000000  -0.000000   0.000061  -0.000000
    32  C    0.000000  -0.000000   0.000000   0.000001   0.002277  -0.000000
    33  C   -0.000000  -0.000000   0.000000   0.000019   0.002974  -0.000000
    34  C    0.000002  -0.000000   0.000000   0.000015   0.000355   0.000000
    35  C    0.000007  -0.000000   0.000000   0.000001  -0.001120   0.000000
    36  C   -0.000156  -0.000000  -0.000000   0.000000  -0.000581  -0.000000
    37  C   -0.004126  -0.000000   0.000000   0.000000   0.000020  -0.000000
    38  C    0.000007  -0.000000   0.000000  -0.000000   0.000014  -0.000000
    39  C   -0.000339   0.000000  -0.000000   0.000000  -0.000001   0.000002
    40  C    0.001633  -0.000000  -0.000000  -0.000000  -0.000000   0.000002
    41  H    0.000106  -0.000000   0.000000   0.000000  -0.000000  -0.000001
    42  H    0.000021  -0.000000   0.000000  -0.000000   0.000000   0.000002
    43  H    0.000002   0.000000  -0.000000   0.000000  -0.000000  -0.000000
    44  H    0.000002   0.000000  -0.000000  -0.000000   0.000014   0.000000
    45  H   -0.000000   0.000000  -0.000000  -0.000000   0.000058   0.000000
    46  H    0.000000   0.000000  -0.000000   0.000003   0.000078   0.000000
    47  H    0.000000   0.000000  -0.000000   0.000001   0.000031   0.000000
    48  H    0.000023   0.000000   0.000000  -0.000000  -0.000000   0.000004
              25         26         27         28         29         30
     1  S    0.000006  -0.000048   0.000000  -0.000000  -0.000000   0.000007
     2  S   -0.004439  -0.009244  -0.000032   0.000032   0.000021  -0.000014
     3  C   -0.000009  -0.000000   0.000004   0.000011   0.000004  -0.000009
     4  C    0.000034  -0.000001  -0.000080  -0.000418  -0.000101  -0.000016
     5  C    0.000462  -0.000007  -0.003314  -0.004457   0.000114   0.000293
     6  C   -0.005687  -0.000055  -0.002037   0.001626   0.000009   0.002048
     7  C   -0.000001  -0.000015   0.000000   0.000000  -0.000000  -0.000000
     8  C    0.000000  -0.000009  -0.000000  -0.000000   0.000000   0.000000
     9  C   -0.000001   0.000016   0.000000  -0.000000  -0.000000   0.000000
    10  C   -0.000012   0.000091  -0.000000  -0.000000  -0.000000   0.000000
    11  C    0.000073  -0.000146   0.000000  -0.000000   0.000000  -0.000000
    12  C   -0.000035   0.000006   0.000000   0.000000  -0.000000  -0.000000
    13  C    0.000066   0.000233  -0.000000  -0.000000  -0.000000  -0.000002
    14  C    0.000159  -0.000087  -0.000005   0.000001  -0.000006  -0.000024
    15  C   -0.000822   0.000212   0.000188   0.000239  -0.000076   0.000069
    16  C   -0.000022  -0.000030  -0.000003  -0.000017  -0.000004   0.000002
    17  H   -0.000000   0.000000   0.000000   0.000001   0.000000  -0.000000
    18  H   -0.000303  -0.000001   0.004915   0.005926  -0.000055  -0.000345
    19  H    0.003424  -0.000046  -0.000958  -0.002352  -0.000501  -0.001717
    20  H   -0.000000   0.000001  -0.000000   0.000000  -0.000000   0.000000
    21  H    0.000000  -0.000000  -0.000000  -0.000000   0.000000   0.000000
    22  H   -0.000000  -0.000000   0.000000   0.000000  -0.000000  -0.000000
    23  H    0.000004   0.000003  -0.000000   0.000000   0.000000  -0.000000
    24  H    0.000003   0.000000  -0.000012  -0.000032   0.000012   0.000004
    25  S   15.393573   0.011963  -0.059714   0.005652   0.000126   0.009494
    26  S    0.011963  15.366975  -0.000236  -0.000021   0.000309   0.002678
    27  C   -0.059714  -0.000236   4.872908   0.510103  -0.040237  -0.050363
    28  C    0.005652  -0.000021   0.510103   4.887700   0.489515  -0.050935
    29  C    0.000126   0.000309  -0.040237   0.489515   4.869252   0.511418
    30  C    0.009494   0.002678  -0.050363  -0.050935   0.511418   4.863156
    31  C    0.002887   0.010658  -0.000001   0.000000  -0.000000  -0.000001
    32  C    0.000256  -0.000428   0.000000  -0.000000   0.000000  -0.000000
    33  C    0.000004   0.006371  -0.000000   0.000000  -0.000000   0.000000
    34  C   -0.000273  -0.063486   0.000000  -0.000000   0.000000  -0.000001
    35  C    0.009641   0.318697   0.000033  -0.000002   0.000002  -0.000311
    36  C   -0.073411  -0.087072  -0.000525   0.000028  -0.000020   0.000088
    37  C    0.318341  -0.093484   0.000034  -0.000037  -0.000678   0.011276
    38  C   -0.087193   0.326837   0.015999  -0.001107   0.013455  -0.088851
    39  C   -0.099214  -0.071047  -0.000201  -0.049790  -0.029163   0.487001
    40  C    0.325909   0.009349   0.438060  -0.051441  -0.056500  -0.041566
    41  H   -0.003012   0.000022   0.422388  -0.038133   0.007498  -0.000695
    42  H    0.000108  -0.000001   0.006943  -0.041749   0.411084  -0.037143
    43  H   -0.000633   0.003002  -0.000913   0.007677  -0.039329   0.420541
    44  H    0.003263  -0.000576  -0.000003   0.000000  -0.000000   0.000000
    45  H   -0.000006   0.000099   0.000000  -0.000000  -0.000000   0.000000
    46  H   -0.000003  -0.000371  -0.000000   0.000000   0.000000   0.000000
    47  H    0.000021  -0.003360   0.000000  -0.000000   0.000000  -0.000000
    48  H   -0.000414  -0.000003  -0.042656   0.414623  -0.041762   0.007489
              31         32         33         34         35         36
     1  S    0.000000   0.000000  -0.000000  -0.000000  -0.000000   0.000000
     2  S    0.000055  -0.000252  -0.000407  -0.001660  -0.007847   0.002897
     3  C    0.000000  -0.000000   0.000000  -0.000000  -0.000000   0.000000
     4  C   -0.000000   0.000000  -0.000000   0.000000   0.000000  -0.000000
     5  C   -0.000000  -0.000000   0.000000  -0.000000  -0.000000  -0.000000
     6  C   -0.000000  -0.000000   0.000000  -0.000000  -0.000009   0.000031
     7  C    0.000000   0.000000  -0.000000  -0.000001   0.000000   0.000001
     8  C   -0.000000  -0.000000  -0.000000  -0.000002   0.000000  -0.000000
     9  C    0.000014   0.000001  -0.000087  -0.000072   0.000006   0.000012
    10  C    0.000144  -0.000669  -0.000811   0.000401   0.000433   0.000344
    11  C   -0.000148   0.000074   0.000122   0.000365  -0.000081  -0.000379
    12  C   -0.000001   0.000002   0.000005   0.000014  -0.000019   0.000003
    13  C   -0.000002  -0.000000   0.000000   0.000001   0.000000  -0.000011
    14  C    0.000028   0.000004  -0.000003  -0.000001   0.000034   0.000132
    15  C    0.000000   0.000000  -0.000000   0.000001   0.000009  -0.000023
    16  C    0.000000   0.000000   0.000000  -0.000000  -0.000000  -0.000000
    17  H    0.000000  -0.000000   0.000000  -0.000000  -0.000000   0.000000
    18  H   -0.000000  -0.000000   0.000000  -0.000000  -0.000000   0.000000
    19  H   -0.000006   0.000000  -0.000000   0.000002   0.000007  -0.000156
    20  H    0.000000  -0.000000  -0.000000  -0.000000  -0.000000  -0.000000
    21  H   -0.000000   0.000000   0.000000   0.000000   0.000000  -0.000000
    22  H   -0.000000   0.000001   0.000019   0.000015   0.000001   0.000000
    23  H    0.000061   0.002277   0.002974   0.000355  -0.001120  -0.000581
    24  H   -0.000000  -0.000000  -0.000000   0.000000   0.000000  -0.000000
    25  S    0.002887   0.000256   0.000004  -0.000273   0.009641  -0.073411
    26  S    0.010658  -0.000428   0.006371  -0.063486   0.318697  -0.087072
    27  C   -0.000001   0.000000  -0.000000   0.000000   0.000033  -0.000525
    28  C    0.000000  -0.000000   0.000000  -0.000000  -0.000002   0.000028
    29  C   -0.000000   0.000000  -0.000000   0.000000   0.000002  -0.000020
    30  C   -0.000001  -0.000000   0.000000  -0.000001  -0.000311   0.000088
    31  C    4.887846   0.504489  -0.049877  -0.055402  -0.039536   0.482777
    32  C    0.504489   4.894413   0.485823  -0.039496  -0.056536  -0.029818
    33  C   -0.049877   0.485823   4.894447   0.506162  -0.045528  -0.052762
    34  C   -0.055402  -0.039496   0.506162   4.868937   0.437778   0.008837
    35  C   -0.039536  -0.056536  -0.045528   0.437778   5.380369   0.407319
    36  C    0.482777  -0.029818  -0.052762   0.008837   0.407319   4.983366
    37  C   -0.092846   0.013369  -0.001182   0.017485  -0.096340   0.377578
    38  C    0.011506  -0.000617  -0.000052  -0.000407  -0.091131  -0.012266
    39  C    0.000094  -0.000016   0.000026  -0.000494   0.003241   0.021211
    40  C   -0.000288   0.000002  -0.000002   0.000033   0.000002   0.002242
    41  H   -0.000000   0.000000  -0.000000   0.000000   0.000001  -0.000010
    42  H    0.000000  -0.000000  -0.000000   0.000000  -0.000000  -0.000000
    43  H    0.000000  -0.000000   0.000000  -0.000003  -0.000092   0.000013
    44  H    0.421265  -0.040123   0.007598  -0.000979   0.009161  -0.044442
    45  H   -0.038009   0.412406  -0.041930   0.007011   0.000213   0.007564
    46  H    0.007604  -0.043174   0.415000  -0.041052   0.008838  -0.000370
    47  H   -0.000638   0.007390  -0.037367   0.420306  -0.046470   0.007308
    48  H    0.000000   0.000000   0.000000  -0.000000  -0.000000  -0.000000
              37         38         39         40         41         42
     1  S   -0.000001  -0.000008   0.000005   0.000006  -0.000000   0.000000
     2  S   -0.011610  -0.003713  -0.000451  -0.002293   0.000003   0.000000
     3  C    0.000000   0.000001  -0.000004  -0.000015   0.000000  -0.000000
     4  C   -0.000001  -0.000001   0.000046   0.000112   0.000002   0.000032
     5  C    0.000029   0.000036  -0.000019   0.000615   0.000117   0.000108
     6  C    0.001154  -0.000199  -0.003069  -0.010425  -0.000100   0.000015
     7  C    0.000000   0.000000   0.000000   0.000000  -0.000000  -0.000000
     8  C    0.000000   0.000000  -0.000000   0.000000   0.000000   0.000000
     9  C   -0.000001  -0.000000   0.000000   0.000000  -0.000000  -0.000000
    10  C   -0.000053  -0.000014   0.000000  -0.000000  -0.000000  -0.000000
    11  C    0.000486   0.000082  -0.000025   0.000001   0.000000   0.000000
    12  C   -0.000005   0.000002   0.000003   0.000000  -0.000000  -0.000000
    13  C   -0.000000  -0.000020   0.000000  -0.000001   0.000000   0.000000
    14  C    0.000284   0.000393  -0.000039   0.000033  -0.000001  -0.000000
    15  C   -0.000132  -0.000151   0.000022  -0.000278  -0.000006  -0.000008
    16  C   -0.000005   0.000001   0.000012   0.000028   0.000000  -0.000001
    17  H    0.000000   0.000000  -0.000000  -0.000000  -0.000000  -0.000000
    18  H    0.000027   0.000007  -0.000320  -0.000735   0.000295  -0.000030
    19  H   -0.004126   0.000007  -0.000339   0.001633   0.000106   0.000021
    20  H   -0.000000  -0.000000   0.000000  -0.000000  -0.000000  -0.000000
    21  H    0.000000   0.000000  -0.000000  -0.000000   0.000000   0.000000
    22  H    0.000000  -0.000000   0.000000  -0.000000   0.000000  -0.000000
    23  H    0.000020   0.000014  -0.000001  -0.000000  -0.000000   0.000000
    24  H   -0.000000  -0.000000   0.000002   0.000002  -0.000001   0.000002
    25  S    0.318341  -0.087193  -0.099214   0.325909  -0.003012   0.000108
    26  S   -0.093484   0.326837  -0.071047   0.009349   0.000022  -0.000001
    27  C    0.000034   0.015999  -0.000201   0.438060   0.422388   0.006943
    28  C   -0.000037  -0.001107  -0.049790  -0.051441  -0.038133  -0.041749
    29  C   -0.000678   0.013455  -0.029163  -0.056500   0.007498   0.411084
    30  C    0.011276  -0.088851   0.487001  -0.041566  -0.000695  -0.037143
    31  C   -0.092846   0.011506   0.000094  -0.000288  -0.000000   0.000000
    32  C    0.013369  -0.000617  -0.000016   0.000002   0.000000  -0.000000
    33  C   -0.001182  -0.000052   0.000026  -0.000002  -0.000000  -0.000000
    34  C    0.017485  -0.000407  -0.000494   0.000033   0.000000   0.000000
    35  C   -0.096340  -0.091131   0.003241   0.000002   0.000001  -0.000000
    36  C    0.377578  -0.012266   0.021211   0.002242  -0.000010  -0.000000
    37  C    5.471892   0.362171  -0.016796  -0.095242  -0.000106   0.000016
    38  C    0.362171   5.435456   0.396355  -0.093936  -0.000300  -0.000466
    39  C   -0.016796   0.396355   4.949176   0.386158   0.007342   0.007469
    40  C   -0.095242  -0.093936   0.386158   5.483067  -0.048506   0.000253
    41  H   -0.000106  -0.000300   0.007342  -0.048506   0.562432  -0.000312
    42  H    0.000016  -0.000466   0.007469   0.000253  -0.000312   0.569314
    43  H    0.000123  -0.011955  -0.045503   0.008971   0.000059  -0.007597
    44  H   -0.011871   0.000041   0.000009  -0.000078   0.000000   0.000000
    45  H   -0.000462   0.000017   0.000000  -0.000000  -0.000000   0.000000
    46  H   -0.000002   0.000010  -0.000000  -0.000000   0.000000   0.000000
    47  H   -0.000340  -0.000080  -0.000007   0.000001   0.000000  -0.000000
    48  H    0.000010  -0.000002  -0.000277   0.008900  -0.007819  -0.007381
              43         44         45         46         47         48
     1  S    0.000003  -0.000000   0.000000   0.000000  -0.000000   0.000000
     2  S    0.000022   0.000141   0.000001   0.000014  -0.000036   0.000001
     3  C   -0.000001   0.000000  -0.000000  -0.000000  -0.000000  -0.000001
     4  C   -0.000005  -0.000000   0.000000   0.000000   0.000000   0.000012
     5  C    0.000028  -0.000000   0.000000  -0.000000  -0.000000   0.000061
     6  C    0.000125   0.000000  -0.000000  -0.000000  -0.000000   0.000045
     7  C    0.000000   0.000000   0.000000  -0.000000  -0.000000   0.000000
     8  C   -0.000000   0.000000   0.000000   0.000000  -0.000001  -0.000000
     9  C   -0.000000   0.000000  -0.000000   0.000009   0.000020   0.000000
    10  C    0.000000   0.000009   0.000008   0.000047   0.000103   0.000000
    11  C    0.000000  -0.000009  -0.000000  -0.000003   0.000006  -0.000000
    12  C    0.000000  -0.000000   0.000000  -0.000000  -0.000001   0.000000
    13  C   -0.000001   0.000000  -0.000000  -0.000000   0.000000  -0.000000
    14  C   -0.000012  -0.000005   0.000000   0.000000   0.000001  -0.000000
    15  C    0.000026  -0.000000   0.000000   0.000000   0.000000   0.000002
    16  C   -0.000000  -0.000000   0.000000  -0.000000  -0.000000  -0.000000
    17  H    0.000000   0.000000  -0.000000   0.000000  -0.000000  -0.000000
    18  H    0.000003  -0.000000  -0.000000   0.000000  -0.000000   0.000214
    19  H    0.000002   0.000002  -0.000000   0.000000   0.000000   0.000023
    20  H    0.000000   0.000000   0.000000   0.000000   0.000000   0.000000
    21  H   -0.000000  -0.000000  -0.000000  -0.000000  -0.000000   0.000000
    22  H    0.000000  -0.000000  -0.000000   0.000003   0.000001  -0.000000
    23  H   -0.000000   0.000014   0.000058   0.000078   0.000031  -0.000000
    24  H   -0.000000   0.000000   0.000000   0.000000   0.000000   0.000004
    25  S   -0.000633   0.003263  -0.000006  -0.000003   0.000021  -0.000414
    26  S    0.003002  -0.000576   0.000099  -0.000371  -0.003360  -0.000003
    27  C   -0.000913  -0.000003   0.000000  -0.000000   0.000000  -0.042656
    28  C    0.007677   0.000000  -0.000000   0.000000  -0.000000   0.414623
    29  C   -0.039329  -0.000000  -0.000000   0.000000   0.000000  -0.041762
    30  C    0.420541   0.000000   0.000000   0.000000  -0.000000   0.007489
    31  C    0.000000   0.421265  -0.038009   0.007604  -0.000638   0.000000
    32  C   -0.000000  -0.040123   0.412406  -0.043174   0.007390   0.000000
    33  C    0.000000   0.007598  -0.041930   0.415000  -0.037367   0.000000
    34  C   -0.000003  -0.000979   0.007011  -0.041052   0.420306  -0.000000
    35  C   -0.000092   0.009161   0.000213   0.008838  -0.046470  -0.000000
    36  C    0.000013  -0.044442   0.007564  -0.000370   0.007308  -0.000000
    37  C    0.000123  -0.011871  -0.000462  -0.000002  -0.000340   0.000010
    38  C   -0.011955   0.000041   0.000017   0.000010  -0.000080  -0.000002
    39  C   -0.045503   0.000009   0.000000  -0.000000  -0.000007  -0.000277
    40  C    0.008971  -0.000078  -0.000000  -0.000000   0.000001   0.008900
    41  H    0.000059   0.000000  -0.000000   0.000000   0.000000  -0.007819
    42  H   -0.007597   0.000000   0.000000   0.000000  -0.000000  -0.007381
    43  H    0.567971   0.000000   0.000000   0.000000   0.000000  -0.000302
    44  H    0.000000   0.567736  -0.007613  -0.000304   0.000061  -0.000000
    45  H    0.000000  -0.007613   0.568803  -0.007412  -0.000312   0.000000
    46  H    0.000000  -0.000304  -0.007412   0.568515  -0.007735  -0.000000
    47  H    0.000000   0.000061  -0.000312  -0.007735   0.561533   0.000000
    48  H   -0.000302  -0.000000   0.000000  -0.000000   0.000000   0.569299
 Mulliken charges:
               1
     1  S    0.273852
     2  S    0.358675
     3  C   -0.075059
     4  C   -0.079203
     5  C   -0.115105
     6  C   -0.016023
     7  C   -0.044844
     8  C   -0.107195
     9  C   -0.088645
    10  C   -0.069447
    11  C   -0.233441
    12  C    0.012251
    13  C   -0.190743
    14  C   -0.190160
    15  C   -0.013773
    16  C   -0.191733
    17  H    0.094322
    18  H    0.088736
    19  H    0.109820
    20  H    0.093432
    21  H    0.094674
    22  H    0.093989
    23  H    0.108669
    24  H    0.093924
    25  S    0.249735
    26  S    0.272253
    27  C   -0.070286
    28  C   -0.082640
    29  C   -0.094386
    30  C   -0.043571
    31  C   -0.052672
    32  C   -0.109380
    33  C   -0.088540
    34  C   -0.064374
    35  C   -0.190763
    36  C    0.000094
    37  C   -0.148975
    38  C   -0.169922
    39  C    0.058605
    40  C   -0.264068
    41  H    0.098736
    42  H    0.099324
    43  H    0.097780
    44  H    0.096702
    45  H    0.099564
    46  H    0.100309
    47  H    0.099565
    48  H    0.099935
 Sum of Mulliken charges =  -0.00000
 Mulliken charges with hydrogens summed into heavy atoms:
               1
     1  S    0.273852
     2  S    0.358675
     3  C    0.019263
     4  C    0.014721
     5  C   -0.026369
     6  C    0.093797
     7  C    0.048589
     8  C   -0.012521
     9  C    0.005344
    10  C    0.039222
    11  C   -0.233441
    12  C    0.012251
    13  C   -0.190743
    14  C   -0.190160
    15  C   -0.013773
    16  C   -0.191733
    25  S    0.249735
    26  S    0.272253
    27  C    0.028450
    28  C    0.017295
    29  C    0.004938
    30  C    0.054210
    31  C    0.044029
    32  C   -0.009815
    33  C    0.011769
    34  C    0.035192
    35  C   -0.190763
    36  C    0.000094
    37  C   -0.148975
    38  C   -0.169922
    39  C    0.058605
    40  C   -0.264068
         Mulliken charges condensed to fragments:
      1      0.006973
      2     -0.006973
 Electronic spatial extent (au):  <R**2>=          14289.5575
 Charge=             -0.0000 electrons
 Dipole moment (field-independent basis, Debye):
    X=              0.2839    Y=             -0.7248    Z=              0.3813  Tot=              0.8668
 Quadrupole moment (field-independent basis, Debye-Ang):
   XX=           -183.3388   YY=           -211.6312   ZZ=           -210.1170
   XY=             10.8090   XZ=             -1.8692   YZ=              6.8638
 Traceless Quadrupole moment (field-independent basis, Debye-Ang):
   XX=             18.3569   YY=             -9.9355   ZZ=             -8.4213
   XY=             10.8090   XZ=             -1.8692   YZ=              6.8638
 Octapole moment (field-independent basis, Debye-Ang**2):
  XXX=              5.5000  YYY=             66.4729  ZZZ=              9.5802  XYY=            -34.2066
  XXY=              5.8553  XXZ=              7.1140  XZZ=             12.1467  YZZ=            -32.8855
  YYZ=              5.3474  XYZ=             -4.9859
 Hexadecapole moment (field-independent basis, Debye-Ang**3):
 XXXX=          -8729.4958 YYYY=          -9030.3900 ZZZZ=          -1510.5426 XXXY=            176.4949
 XXXZ=            -97.1582 YYYX=            199.8294 YYYZ=            160.2801 ZZZX=             29.3532
 ZZZY=             34.4309 XXYY=          -2931.8602 XXZZ=          -1842.9034 YYZZ=          -1782.5636
 XXYZ=             82.1958 YYXZ=            -19.8779 ZZXY=             35.2383
 N-N= 3.747539594296D+03 E-N=-1.378174702793D+04  KE= 2.662823364830D+03
 CPIOFr:  IOpCl= 0 IRwI=-1 IRwCP=  731 ICalc= -1 LCPTot=      762852 Len1MO=     1998050 IndFrg=      762852
 CPIOFr:  IOpCl= 0 IRwI=-1 IRwCP=  731 ICalc=  0 LCPTot=      762852 Len1MO=     1998050 IndFrg=     2760902
 Counterpoise: doing calculation for fragment   1 using the basis set of the full-system, NewBq=T
 Basis read from rwf:  (5D, 7F)
 There are   736 symmetry adapted cartesian basis functions of A   symmetry.
 There are   704 symmetry adapted basis functions of A   symmetry.
   704 basis functions,  1208 primitive gaussians,   736 cartesian basis functions
    62 alpha electrons       62 beta electrons
       nuclear repulsion energy      1192.1837186745 Hartrees.
 NAtoms=   48 NActive=   48 NUniq=   48 SFac= 1.00D+00 NAtFMM=   60 NAOKFM=F Big=F
 Integral buffers will be    131072 words long.
 Raffenetti 2 integral format.
 Two-electron integral symmetry is turned on.
 Nuclear repulsion after empirical dispersion term =     1192.1624493651 Hartrees.
 One-electron integrals computed using PRISM.
 NBasis=   704 RedAO= T EigKep=  1.61D-04  NBF=   704
 NBsUse=   704 1.00D-06 EigRej= -1.00D+00 NBFU=   704
 ExpMin= 7.71D-02 ExpMax= 9.34D+04 ExpMxC= 3.17D+03 IAcc=3 IRadAn=         5 AccDes= 0.00D+00
 Harris functional with IExCor=  402 and IRadAn=       5 diagonalized for initial guess.
 HarFok:  IExCor=  402 AccDes= 0.00D+00 IRadAn=         5 IDoV= 1 UseB2=F ITyADJ=14
 ICtDFT=  3500011 ScaDFX=  1.000000  1.000000  1.000000  1.000000
 FoFCou: FMM=F IPFlag=           0 FMFlag=      100000 FMFlg1=           0
         NFxFlg=           0 DoJE=T BraDBF=F KetDBF=T FulRan=T
         wScrn=  0.000000 ICntrl=       500 IOpCl=  0 I1Cent=   200000004 NGrid=           0
         NMat0=    1 NMatS0=      1 NMatT0=    0 NMatD0=    1 NMtDS0=    0 NMtDT0=    0
 Petite list used in FoFCou.
 Requested convergence on RMS density matrix=1.00D-08 within 128 cycles.
 Requested convergence on MAX density matrix=1.00D-06.
 Requested convergence on             energy=1.00D-06.
 No special actions if energy rises.
 Integral accuracy reduced to 1.0D-05 until final iterations.
